 -4.8000002E-03    1.0000000E-24
 -4.7650002E-03    1.0000002E-24
 -4.7300002E-03    1.0000001E-24
 -4.6950001E-03    1.0000001E-24
 -4.6600001E-03    1.0000002E-24
 -4.6250001E-03    1.0000000E-24
 -4.5900000E-03    9.9999992E-25
 -4.5550000E-03    1.0000002E-24
 -4.5200000E-03    1.0000000E-24
 -4.4849999E-03    9.9999953E-25
 -4.4499999E-03    1.0000001E-24
 -4.4149999E-03    1.0000006E-24
 -4.3799998E-03    1.0000004E-24
 -4.3449998E-03    1.0000000E-24
 -4.3100002E-03    9.9999982E-25
 -4.2750002E-03    1.0000002E-24
 -4.2400002E-03    1.0000002E-24
 -4.2050001E-03    9.9999982E-25
 -4.1700001E-03    9.9999972E-25
 -4.1350001E-03    1.0000004E-24
 -4.1000000E-03    1.0000008E-24
 -4.0650000E-03    1.0000002E-24
 -4.0300000E-03    9.9999963E-25
 -3.9949999E-03    9.9999953E-25
 -3.9599999E-03    1.0000000E-24
 -3.9249999E-03    1.0000003E-24
 -3.8900001E-03    9.9999982E-25
 -3.8550000E-03    9.9999972E-25
 -3.8200000E-03    1.0000005E-24
 -3.7849999E-03    1.0000008E-24
 -3.7499999E-03    9.9999972E-25
 -3.7150001E-03    9.9999903E-25
 -3.6800001E-03    1.0000001E-24
 -3.6450000E-03    1.0000008E-24
 -3.6100000E-03    1.0000001E-24
 -3.5750000E-03    9.9999972E-25
 -3.5399999E-03    1.0000004E-24
 -3.5049999E-03    1.0000006E-24
 -3.4700001E-03    9.9999982E-25
 -3.4350001E-03    9.9999933E-25
 -3.4000000E-03    9.9999972E-25
 -3.3650000E-03    1.0000002E-24
 -3.3300000E-03    1.0000005E-24
 -3.2949999E-03    1.0000004E-24
 -3.2599999E-03    9.9999982E-25
 -3.2250001E-03    9.9999963E-25
 -3.1900001E-03    1.0000005E-24
 -3.1550000E-03    1.0000006E-24
 -3.1200000E-03    9.9999923E-25
 -3.0850000E-03    9.9999953E-25
 -3.0499999E-03    1.0000010E-24
 -3.0149999E-03    1.0000008E-24
 -2.9800001E-03    9.9999963E-25
 -2.9450001E-03    9.9999982E-25
 -2.9100000E-03    1.0000005E-24
 -2.8750000E-03    9.9999972E-25
 -2.8400000E-03    9.9999923E-25
 -2.8049999E-03    9.9999963E-25
 -2.7699999E-03    1.0000007E-24
 -2.7350001E-03    1.0000007E-24
 -2.7000001E-03    1.0000001E-24
 -2.6650000E-03    9.9999972E-25
 -2.6300000E-03    9.9999953E-25
 -2.5950000E-03    9.9999972E-25
 -2.5599999E-03    1.0000003E-24
 -2.5249999E-03    1.0000007E-24
 -2.4900001E-03    1.0000004E-24
 -2.4550001E-03    9.9999992E-25
 -2.4200000E-03    1.0000005E-24
 -2.3850000E-03    1.0000009E-24
 -2.3500000E-03    9.9999963E-25
 -2.3149999E-03    9.9999884E-25
 -2.2799999E-03    1.0000002E-24
 -2.2450001E-03    1.0000008E-24
 -2.2100001E-03    9.9999923E-25
 -2.1750000E-03    9.9999903E-25
 -2.1400000E-03    1.0000004E-24
 -2.1050000E-03    1.0000001E-24
 -2.0699999E-03    9.9999943E-25
 -2.0349999E-03    1.0000006E-24
 -2.0000001E-03    1.0000015E-24
 -1.9650001E-03    1.0000002E-24
 -1.9300000E-03    9.9999953E-25
 -1.8950000E-03    1.0000004E-24
 -1.8600000E-03    1.0000000E-24
 -1.8250000E-03    9.9999943E-25
 -1.7900000E-03    1.0000000E-24
 -1.7550000E-03    1.0000005E-24
 -1.7199999E-03    1.0000006E-24
 -1.6850000E-03    1.0000004E-24
 -1.6500000E-03    9.9999982E-25
 -1.6150000E-03    9.9999933E-25
 -1.5800000E-03    9.9999972E-25
 -1.5450000E-03    9.9999943E-25
 -1.5100000E-03    9.9999972E-25
 -1.4750001E-03    1.0000008E-24
 -1.4400000E-03    1.0000005E-24
 -1.4050000E-03    9.9999943E-25
 -1.3700000E-03    1.0000001E-24
 -1.3350000E-03    1.0000006E-24
 -1.3000000E-03    9.9999943E-25
 -1.2650000E-03    9.9999992E-25
 -1.2300001E-03    1.0000015E-24
 -1.1950000E-03    1.0000000E-24
 -1.1600000E-03    9.9999933E-25
 -1.1250000E-03    1.0000014E-24
 -1.0900000E-03    1.0000007E-24
 -1.0550000E-03    9.9999824E-25
 -1.0200000E-03    1.0000000E-24
 -9.8500005E-04    1.0000019E-24
 -9.5000002E-04    9.9999992E-25
 -9.1499998E-04    9.9999844E-25
 -8.8000001E-04    9.9999992E-25
 -8.4499997E-04    1.0000004E-24
 -8.1000000E-04    9.9999963E-25
 -7.7500002E-04    1.0000000E-24
 -7.3999999E-04    1.0000012E-24
 -7.0500001E-04    1.0000007E-24
 -6.6999998E-04    9.9999933E-25
 -6.3500000E-04    9.9999963E-25
 -6.0000003E-04    1.0000001E-24
 -5.6499999E-04    9.9999972E-25
 -5.3000002E-04    1.0000002E-24
 -4.9499999E-04    1.0000007E-24
 -4.6000001E-04    1.0000001E-24
 -4.2500001E-04    9.9999953E-25
 -3.9000000E-04    9.9999982E-25
 -3.5500000E-04    1.0000004E-24
 -3.1999999E-04    1.0000009E-24
 -2.8499999E-04    1.0000005E-24
 -2.5000001E-04    9.9999943E-25
 -2.1499999E-04    1.0000002E-24
 -1.8000000E-04    1.0000012E-24
 -1.4500000E-04    9.9999953E-25
 -1.1000000E-04    9.9999854E-25
 -7.5000004E-05    1.0000005E-24
 -3.9999999E-05    1.0000011E-24
 -4.9999999E-06    9.9999953E-25
  2.9999999E-05    9.9999943E-25
  6.5000000E-05    1.0000003E-24
  9.9999997E-05    1.0000004E-24
  1.3499999E-04    1.0000004E-24
  1.7000000E-04    9.9999963E-25
  2.0500000E-04    9.9999893E-25
  2.3999999E-04    1.0000002E-24
  2.7500000E-04    1.0000009E-24
  3.1000000E-04    9.9999953E-25
  3.4500001E-04    9.9999953E-25
  3.8000001E-04    1.0000010E-24
  4.1499999E-04    1.0000005E-24
  4.4999999E-04    9.9999903E-25
  4.8500000E-04    9.9999982E-25
  5.2000000E-04    1.0000011E-24
  5.5499998E-04    1.0000006E-24
  5.9000001E-04    9.9999972E-25
  6.2499999E-04    9.9999992E-25
  6.6000002E-04    1.0000002E-24
  6.9500000E-04    1.0000000E-24
  7.3000003E-04    1.0000001E-24
  7.6500000E-04    1.0000004E-24
  7.9999998E-04    9.9999992E-25
  8.3500001E-04    9.9999864E-25
  8.6999999E-04    9.9999903E-25
  9.0500002E-04    1.0000016E-24
  9.4000000E-04    1.0000015E-24
  9.7499997E-04    9.9999884E-25
  1.0100000E-03    9.9999903E-25
  1.0450000E-03    1.0000017E-24
  1.0800000E-03    1.0000002E-24
  1.1150000E-03    9.9999755E-25
  1.1500000E-03    1.0000002E-24
  1.1849999E-03    1.0000024E-24
  1.2200000E-03    9.9999972E-25
  1.2550000E-03    9.9999913E-25
  1.2900000E-03    1.0000014E-24
  1.3250000E-03    1.0000005E-24
  1.3600000E-03    9.9999884E-25
  1.3950000E-03    9.9999963E-25
  1.4299999E-03    1.0000000E-24
  1.4650000E-03    9.9999972E-25
  1.5000000E-03    1.0000005E-24
  1.5350000E-03    1.0000005E-24
  1.5700000E-03    1.0000001E-24
  1.6050000E-03    1.0000012E-24
  1.6400000E-03    1.0000004E-24
  1.6749999E-03    9.9999815E-25
  1.7100000E-03    9.9999903E-25
  1.7450000E-03    1.0000004E-24
  1.7800000E-03    9.9999933E-25
  1.8150000E-03    9.9999992E-25
  1.8500000E-03    1.0000021E-24
  1.8850000E-03    1.0000006E-24
  1.9200000E-03    9.9999844E-25
  1.9550000E-03    9.9999992E-25
  1.9900000E-03    1.0000010E-24
  2.0250001E-03    9.9999992E-25
  2.0600001E-03    9.9999963E-25
  2.0949999E-03    1.0000004E-24
  2.1299999E-03    1.0000002E-24
  2.1650000E-03    1.0000003E-24
  2.2000000E-03    1.0000004E-24
  2.2350000E-03    9.9999943E-25
  2.2700001E-03    9.9999953E-25
  2.3050001E-03    1.0000008E-24
  2.3399999E-03    1.0000001E-24
  2.3749999E-03    9.9999923E-25
  2.4100000E-03    1.0000012E-24
  2.4450000E-03    1.0000018E-24
  2.4800000E-03    9.9999884E-25
  2.5150001E-03    9.9999854E-25
  2.5500001E-03    1.0000018E-24
  2.5849999E-03    1.0000012E-24
  2.6199999E-03    9.9999795E-25
  2.6550000E-03    9.9999923E-25
  2.6900000E-03    1.0000024E-24
  2.7250000E-03    9.9999992E-25
  2.7600001E-03    9.9999677E-25
  2.7950001E-03    1.0000000E-24
  2.8299999E-03    1.0000028E-24
  2.8649999E-03    9.9999943E-25
  2.9000000E-03    9.9999854E-25
  2.9350000E-03    1.0000020E-24
  2.9700000E-03    1.0000010E-24
  3.0050001E-03    9.9999736E-25
  3.0400001E-03    9.9999923E-25
  3.0749999E-03    1.0000032E-24
  3.1099999E-03    1.0000009E-24
  3.1450000E-03    9.9999854E-25
  3.1800000E-03    1.0000010E-24
  3.2150000E-03    1.0000020E-24
  3.2500001E-03    9.9999824E-25
  3.2850001E-03    9.9999706E-25
  3.3199999E-03    1.0000011E-24
  3.3549999E-03    1.0000026E-24
  3.3900000E-03    9.9999893E-25
  3.4250000E-03    9.9999834E-25
  3.4600000E-03    1.0000016E-24
  3.4950001E-03    1.0000013E-24
  3.5300001E-03    9.9999795E-25
  3.5649999E-03    9.9999834E-25
  3.5999999E-03    1.0000018E-24
  3.6350000E-03    1.0000013E-24
  3.6700000E-03    9.9999834E-25
  3.7050000E-03    9.9999933E-25
  3.7400001E-03    1.0000020E-24
  3.7750001E-03    1.0000013E-24
  3.8099999E-03    9.9999893E-25
  3.8449999E-03    9.9999903E-25
  3.8800000E-03    1.0000007E-24
  3.9149998E-03    1.0000007E-24
  3.9499998E-03    9.9999972E-25
  3.9849998E-03    9.9999972E-25
  4.0199999E-03    1.0000004E-24
  4.0549999E-03    1.0000002E-24
  4.0899999E-03    9.9999972E-25
  4.1250000E-03    9.9999992E-25
  4.1600000E-03    9.9999992E-25
  4.1950000E-03    9.9999884E-25
  4.2300001E-03    9.9999953E-25
  4.2650001E-03    1.0000011E-24
  4.3000001E-03    1.0000003E-24
  4.3350002E-03    9.9999963E-25
  4.3700002E-03    1.0000011E-24
  4.4049998E-03    1.0000006E-24
  4.4399998E-03    9.9999864E-25
  4.4749998E-03    9.9999972E-25
  4.5099999E-03    1.0000022E-24
  4.5449999E-03    1.0000021E-24
  4.5799999E-03    9.9999953E-25
  4.6150000E-03    9.9999785E-25
  4.6500000E-03    9.9999903E-25
  4.6850001E-03    1.0000013E-24
  4.7200001E-03    1.0000010E-24
  4.7550001E-03    1.0000001E-24
  4.7900002E-03    1.0000014E-24
  4.8250002E-03    1.0000023E-24
  4.8600002E-03    9.9999943E-25
  4.8949998E-03    9.9999696E-25
  4.9299998E-03    9.9999874E-25
  4.9649999E-03    1.0000012E-24
  4.9999999E-03    1.0000012E-24
  5.0349999E-03    9.9999923E-25
  5.0700000E-03    1.0000000E-24
  5.1050000E-03    1.0000028E-24
  5.1400000E-03    9.9999992E-25
  5.1750001E-03    9.9999499E-25
  5.2100001E-03    9.9999982E-25
  5.2450001E-03    1.0000048E-24
  5.2800002E-03    9.9999815E-25
  5.3150002E-03    9.9999686E-25
  5.3500002E-03    1.0000077E-24
  5.3849998E-03    1.0000036E-24
  5.4199998E-03    9.9998819E-25
  5.4549999E-03    9.9999903E-25
  5.4899999E-03    1.0000154E-24
  5.5249999E-03    9.9999243E-25
  5.5600000E-03    9.9998050E-25
  5.5950000E-03    1.0000213E-24
  5.6300000E-03    1.0000207E-24
  5.6650001E-03    9.9995821E-25
  5.7000001E-03    9.9998592E-25
  5.7350001E-03    1.0000701E-24
  5.7700002E-03    9.9999341E-25
  5.8050002E-03    9.9989569E-25
  5.8400002E-03    1.0000545E-24
  5.8749998E-03    1.0001455E-24
  5.9099998E-03    9.9986256E-25
  5.9449999E-03    9.9981986E-25
  5.9799999E-03    1.0002718E-24
  6.0149999E-03    1.0001861E-24
  6.0500000E-03    9.9952217E-25
  6.0850000E-03    9.9986621E-25
  6.1200000E-03    1.0007674E-24
  6.1550001E-03    9.9997428E-25
  6.1900001E-03    9.9886347E-25
  6.2250001E-03    1.0003666E-24
  6.2600002E-03    1.0015618E-24
  6.2950002E-03    9.9901858E-25
  6.3299998E-03    9.9802718E-25
  6.3649998E-03    1.0019837E-24
  6.3999998E-03    1.0022334E-24
  6.4349999E-03    9.9651286E-25
  6.4699999E-03    9.9790017E-25
  6.5049999E-03    1.0055845E-24
  6.5400000E-03    1.0011817E-24
  6.5750000E-03    9.9169755E-25
  6.6100000E-03    1.0010967E-24
  6.6450001E-03    1.0115194E-24
  6.6800001E-03    9.9445571E-25
  6.7150001E-03    9.8514468E-25
  6.7500002E-03    1.0132374E-24
  6.7850002E-03    1.0175303E-24
  6.8199998E-03    9.7448776E-25
  6.8549998E-03    9.8183995E-25
  6.8899998E-03    1.0439152E-24
  6.9249999E-03    1.0145171E-24
  6.9599999E-03    9.2993783E-25
  6.9949999E-03    9.9672595E-25
  7.0300000E-03    1.1053445E-24
  7.0650000E-03    9.7973339E-25
  7.1000000E-03    8.4955892E-25
  7.1350001E-03    1.0623744E-24
  7.1700001E-03    1.2045220E-24
  7.2050001E-03    8.6903481E-25
  7.2400002E-03    7.3593223E-25
  7.2750002E-03    1.2354022E-24
  7.3099998E-03    1.3211581E-24
  7.3449998E-03    6.1412678E-25
  7.3799998E-03    6.3890619E-25
  7.4149999E-03    1.5921437E-24
  7.4499999E-03    1.3592383E-24
  7.4850000E-03    1.3859314E-25
  7.5200000E-03    7.2305876E-25
  7.5550000E-03    2.1950021E-24
  7.5900001E-03    1.0565435E-24
  7.6250001E-03   -5.8369692E-25
  7.6600001E-03    1.3844475E-24
  7.6950002E-03    3.0013696E-24
  7.7300002E-03   -1.5957864E-25
  7.7650002E-03   -1.3969623E-24
  7.7999998E-03    3.4192415E-24
  7.8349998E-03    3.6847740E-24
  7.8699999E-03   -3.3544851E-24
  7.9049999E-03   -1.7333656E-24
  7.9399999E-03    8.1962782E-24
  7.9750000E-03    3.3535073E-24
  8.0100000E-03   -1.0206301E-23
  8.0450000E-03   -2.8564141E-25
  8.0800001E-03    1.7653511E-23
  8.1150001E-03    1.8716624E-25
  8.1500001E-03   -2.2768656E-23
  8.1850002E-03    5.3810494E-24
  8.2200002E-03    3.3666807E-23
  8.2550002E-03   -8.9708197E-24
  8.2900003E-03   -4.2226200E-23
  8.3250003E-03    1.9269794E-23
  8.3600003E-03    5.5911040E-23
  8.3950004E-03   -2.9139458E-23
  8.4300004E-03   -6.5528195E-23
  8.4650004E-03    4.7679384E-23
  8.5000005E-03    7.6913206E-23
  8.5349996E-03   -6.8332684E-23
  8.5699996E-03   -7.8553248E-23
  8.6049996E-03    1.0104792E-22
  8.6399997E-03    7.3173627E-23
  8.6749997E-03   -1.4050787E-22
  8.7099997E-03   -4.5342343E-23
  8.7449998E-03    1.9841835E-22
  8.7799998E-03   -6.8166425E-24
  8.8149998E-03   -2.7181693E-22
  8.8499999E-03    1.0367125E-22
  8.8849999E-03    3.7530233E-22
  8.9199999E-03   -2.5172238E-22
  8.9550000E-03   -5.0899648E-22
  8.9900000E-03    4.7465183E-22
  9.0250000E-03    6.8992709E-22
  9.0600001E-03   -7.7960612E-22
  9.0950001E-03   -9.1836354E-22
  9.1300001E-03    1.1866316E-21
  9.1650002E-03    1.2064761E-21
  9.2000002E-03   -1.6933460E-21
  9.2350002E-03   -1.5405378E-21
  9.2700003E-03    2.3032442E-21
  9.3050003E-03    1.9038307E-21
  9.3400003E-03   -2.9904665E-21
  9.3750004E-03   -2.2315146E-21
  9.4100004E-03    3.7304585E-21
  9.4450004E-03    2.4251332E-21
  9.4799995E-03   -4.4705942E-21
  9.5149996E-03   -2.2992188E-21
  9.5499996E-03    5.1714787E-21
  9.5849996E-03    1.5899123E-21
  9.6199997E-03   -5.7939906E-21
  9.6549997E-03    9.8441694E-23
  9.6899997E-03    6.3629027E-21
  9.7249998E-03   -3.2738559E-21
  9.7599998E-03   -6.9805384E-21
  9.7949998E-03    8.5822145E-21
  9.8299999E-03    7.9169166E-21
  9.8649999E-03   -1.6735731E-20
  9.8999999E-03   -9.6411705E-21
  9.9350000E-03    2.8455569E-20
  9.9700000E-03    1.2906477E-20
  1.0005000E-02   -4.4282814E-20
  1.0040000E-02   -1.8732371E-20
  1.0075000E-02    6.4371699E-20
  1.0110000E-02    2.8368799E-20
  1.0145000E-02   -8.8133884E-20
  1.0180000E-02   -4.3052725E-20
  1.0215000E-02    1.1388066E-19
  1.0250000E-02    6.3609511E-20
  1.0285000E-02   -1.3839165E-19
  1.0320000E-02   -8.9687982E-20
  1.0355000E-02    1.5664813E-19
  1.0390000E-02    1.1868827E-19
  1.0425000E-02   -1.6178585E-19
  1.0460000E-02   -1.4423303E-19
  1.0495000E-02    1.4565759E-19
  1.0530000E-02    1.5438852E-19
  1.0565000E-02   -1.0021221E-19
  1.0600000E-02   -1.2975715E-19
  1.0635000E-02    2.0182672E-20
  1.0670000E-02    4.2067420E-20
  1.0705000E-02    9.2743219E-20
  1.0740000E-02    1.4604408E-19
  1.0775000E-02   -2.2406281E-19
  1.0810000E-02   -4.7875658E-19
  1.0845000E-02    3.3941917E-19
  1.0880000E-02    1.0009561E-18
  1.0915000E-02   -3.7739870E-19
  1.0950000E-02   -1.7466231E-18
  1.0985000E-02    2.4452296E-19
  1.1020000E-02    2.7206767E-18
  1.1055000E-02    1.8413077E-19
  1.1090000E-02   -3.8740723E-18
  1.1125000E-02   -1.0536574E-18
  1.1160000E-02    5.0743130E-18
  1.1195000E-02    2.5017097E-18
  1.1230000E-02   -6.0765354E-18
  1.1265000E-02   -4.6088581E-18
  1.1300000E-02    6.5049674E-18
  1.1335000E-02    7.3237397E-18
  1.1370000E-02   -5.8591891E-18
  1.1405000E-02   -1.0364872E-17
  1.1440000E-02    3.5641136E-18
  1.1475000E-02    1.3110383E-17
  1.1510000E-02    9.1598900E-19
  1.1545000E-02   -1.4499565E-17
  1.1580000E-02   -7.8826623E-18
  1.1615000E-02    1.2986299E-17
  1.1650000E-02    1.7123309E-17
  1.1685000E-02   -6.5995716E-18
  1.1720000E-02   -2.7564944E-17
  1.1755000E-02   -6.8233748E-18
  1.1790000E-02    3.6916694E-17
  1.1825000E-02    2.9169247E-17
  1.1860000E-02   -4.1401839E-17
  1.1895000E-02   -6.1309343E-17
  1.1930000E-02    3.5730083E-17
  1.1965000E-02    1.0210862E-16
  1.2000000E-02   -1.3499220E-17
  1.2035000E-02   -1.4729563E-16
  1.2070000E-02   -3.1775624E-17
  1.2105000E-02    1.8843151E-16
  1.2140000E-02    1.0485513E-16
  1.2175000E-02   -2.1235894E-16
  1.2210000E-02   -2.0616920E-16
  1.2245000E-02    2.0163768E-16
  1.2280000E-02    3.2861570E-16
  1.2315000E-02   -1.3653332E-16
  1.2350000E-02   -4.5429177E-16
  1.2385000E-02   -9.5314368E-19
  1.2420000E-02    5.5206516E-16
  1.2455000E-02    2.2079702E-16
  1.2490000E-02   -5.7725936E-16
  1.2525000E-02   -5.1671874E-16
  1.2560000E-02    4.7494726E-16
  1.2595000E-02    8.5710046E-16
  1.2630000E-02   -1.8825751E-16
  1.2665000E-02   -1.1771050E-15
  1.2700000E-02   -3.2744777E-16
  1.2735000E-02    1.3750131E-15
  1.2770000E-02    1.0848454E-15
  1.2805000E-02   -1.3164703E-15
  1.2840000E-02   -2.0414809E-15
  1.2875000E-02    8.5034612E-16
  1.2910000E-02    3.0775549E-15
  1.2945000E-02    1.6114922E-16
  1.2980000E-02   -3.9814394E-15
  1.3015000E-02   -1.7979236E-15
  1.3050000E-02    4.4515427E-15
  1.3085000E-02    4.0268103E-15
  1.3120000E-02   -4.1235609E-15
  1.3155000E-02   -6.6446829E-15
  1.3190000E-02    2.6302785E-15
  1.3225000E-02    9.2343913E-15
  1.3260000E-02    3.0394552E-16
  1.3295000E-02   -1.1152605E-14
  1.3330000E-02   -4.7401857E-15
  1.3365000E-02    1.1570361E-14
  1.3400000E-02    1.0390888E-14
  1.3435000E-02   -9.5839542E-15
  1.3470000E-02   -1.6504415E-14
  1.3505000E-02    4.4041084E-15
  1.3540000E-02    2.1808539E-14
  1.3575000E-02    4.3856389E-15
  1.3610000E-02   -2.4558123E-14
  1.3645000E-02   -1.6533529E-14
  1.3680000E-02    2.2727451E-14
  1.3715000E-02    3.0845250E-14
  1.3750000E-02   -1.4369479E-14
  1.3785000E-02   -4.5011937E-14
  1.3820000E-02   -1.8687931E-15
  1.3855000E-02    5.5634002E-14
  1.3890000E-02    2.6131229E-14
  1.3925000E-02   -5.8527964E-14
  1.3960000E-02   -5.6746505E-14
  1.3995000E-02    4.9370694E-14
  1.4030000E-02    8.9787315E-14
  1.4065000E-02   -2.4674126E-14
  1.4100000E-02   -1.1897947E-13
  1.4135000E-02   -1.7002840E-14
  1.4170000E-02    1.3613828E-13
  1.4205000E-02    7.3799792E-14
  1.4240000E-02   -1.3225483E-13
  1.4275000E-02   -1.3954538E-13
  1.4310000E-02    9.9244994E-14
  1.4345000E-02    2.0334132E-13
  1.4380000E-02   -3.2216288E-14
  1.4415000E-02   -2.5008655E-13
  1.4450000E-02   -6.8079196E-14
  1.4485000E-02    2.6219801E-13
  1.4520000E-02    1.9311404E-13
  1.4555000E-02   -2.2259806E-13
  1.4590000E-02   -3.2540924E-13
  1.4625000E-02    1.1876176E-13
  1.4660000E-02    4.3895893E-13
  1.4695000E-02    5.2717484E-14
  1.4730000E-02   -5.0176616E-13
  1.4765000E-02   -2.8190571E-13
  1.4800000E-02    4.8069323E-13
  1.4835000E-02    5.4275421E-13
  1.4870000E-02   -3.4835714E-13
  1.4905000E-02   -7.9292974E-13
  1.4940000E-02    9.1233417E-14
  1.4975000E-02    9.7721473E-13
  1.5010000E-02    2.8244063E-13
  1.5045000E-02   -1.0349574E-12
  1.5080000E-02   -7.3681377E-13
  1.5115000E-02    9.1128147E-13
  1.5150000E-02    1.2066203E-12
  1.5185000E-02   -5.7082659E-13
  1.5220000E-02   -1.6011775E-12
  1.5255000E-02    1.1807763E-14
  1.5290000E-02    1.8151969E-12
  1.5325000E-02    7.2259473E-13
  1.5360000E-02   -1.7462302E-12
  1.5395000E-02   -1.5388560E-12
  1.5430000E-02    1.3170304E-12
  1.5465000E-02    2.2968058E-12
  1.5500000E-02   -4.9950750E-13
  1.5535000E-02   -2.8243911E-12
  1.5570000E-02   -6.6441432E-13
  1.5605000E-02    2.9436993E-12
  1.5640000E-02    2.0504791E-12
  1.5675001E-02   -2.5059911E-12
  1.5710000E-02   -3.4534964E-12
  1.5745001E-02    1.4308817E-12
  1.5780000E-02    4.6061601E-12
  1.5814999E-02    2.5751422E-13
  1.5850000E-02   -5.2162675E-12
  1.5884999E-02   -2.4060797E-12
  1.5920000E-02    5.0195685E-12
  1.5954999E-02    4.7283275E-12
  1.5990000E-02   -3.8412884E-12
  1.6024999E-02   -6.8265992E-12
  1.6060000E-02    1.6555523E-12
  1.6094999E-02    8.2432403E-12
  1.6130000E-02    1.3704676E-12
  1.6164999E-02   -8.5374876E-12
  1.6200000E-02   -4.8611080E-12
  1.6235000E-02    7.3783210E-12
  1.6270000E-02    8.2559307E-12
  1.6305000E-02   -4.6376102E-12
  1.6340001E-02   -1.0877400E-11
  1.6375000E-02    4.6387812E-13
  1.6410001E-02    1.2038696E-11
  1.6445000E-02    4.6834533E-12
  1.6480001E-02   -1.1178465E-11
  1.6515000E-02   -1.0055783E-11
  1.6550001E-02    8.0002237E-12
  1.6585000E-02    1.4701060E-11
  1.6620001E-02   -2.5881135E-12
  1.6655000E-02   -1.7609462E-11
  1.6690001E-02   -4.5303761E-12
  1.6725000E-02    1.7901253E-11
  1.6759999E-02    1.2399035E-11
  1.6795000E-02   -1.5025932E-11
  1.6829999E-02   -1.9737418E-11
  1.6865000E-02    8.9331433E-12
  1.6899999E-02    2.5130720E-11
  1.6935000E-02   -1.7416563E-13
  1.6969999E-02   -2.7281120E-11
  1.7005000E-02   -1.0100048E-11
  1.7039999E-02    2.5278814E-11
  1.7075000E-02    2.0261470E-11
  1.7109999E-02   -1.8839690E-11
  1.7145000E-02   -2.8442642E-11
  1.7180000E-02    8.4546077E-12
  1.7215000E-02    3.2857283E-11
  1.7250000E-02    4.5931241E-12
  1.7285001E-02   -3.2149727E-11
  1.7320000E-02   -1.8363706E-11
  1.7355001E-02    2.5705785E-11
  1.7390000E-02    3.0541604E-11
  1.7425001E-02   -1.3857485E-11
  1.7460000E-02   -3.8821207E-11
  1.7495001E-02   -2.0701578E-12
  1.7530000E-02    4.1331993E-11
  1.7565001E-02    1.9895379E-11
  1.7600000E-02   -3.7023520E-11
  1.7635001E-02   -3.6888024E-11
  1.7670000E-02    2.5933771E-11
  1.7704999E-02    5.0205985E-11
  1.7740000E-02   -9.2805078E-12
  1.7774999E-02   -5.7386790E-11
  1.7810000E-02   -1.0653580E-11
  1.7844999E-02    5.6807573E-11
  1.7880000E-02    3.0835171E-11
  1.7914999E-02   -4.8026784E-11
  1.7950000E-02   -4.7948697E-11
  1.7984999E-02    3.1938209E-11
  1.8020000E-02    5.8943045E-11
  1.8054999E-02   -1.0699295E-11
  1.8090000E-02   -6.1562054E-11
  1.8124999E-02   -1.2564747E-11
  1.8160000E-02    5.4762743E-11
  1.8195000E-02    3.4237863E-11
  1.8230001E-02   -3.8941215E-11
  1.8265000E-02   -5.0790590E-11
  1.8300001E-02    1.5922066E-11
  1.8335000E-02    5.9358136E-11
  1.8370001E-02    1.1289350E-11
  1.8405000E-02   -5.8219062E-11
  1.8440001E-02   -3.8947193E-11
  1.8475000E-02    4.7098537E-11
  1.8510001E-02    6.3124492E-11
  1.8545000E-02   -2.7252884E-11
  1.8580001E-02   -8.0304187E-11
  1.8615000E-02    1.3290063E-12
  1.8650001E-02    8.7918776E-11
  1.8685000E-02    2.6977046E-11
  1.8719999E-02   -8.4771287E-11
  1.8755000E-02   -5.3421597E-11
  1.8789999E-02    7.1285824E-11
  1.8825000E-02    7.3827111E-11
  1.8859999E-02   -4.9543081E-11
  1.8895000E-02   -8.4746592E-11
  1.8929999E-02    2.3057984E-11
  1.8965000E-02    8.4088479E-11
  1.8999999E-02    3.7190103E-12
  1.9035000E-02   -7.1577508E-11
  1.9069999E-02   -2.6141152E-11
  1.9105000E-02    4.8919948E-11
  1.9140000E-02    4.0234201E-11
  1.9175000E-02   -1.9573634E-11
  1.9210000E-02   -4.3510792E-11
  1.9245001E-02   -1.1890157E-11
  1.9280000E-02    3.5511146E-11
  1.9315001E-02    4.0723449E-11
  1.9350000E-02   -1.7882860E-11
  1.9385001E-02   -6.2994936E-11
  1.9420000E-02   -6.0495367E-12
  1.9455001E-02    7.6351973E-11
  1.9490000E-02    3.2095444E-11
  1.9525001E-02   -8.0340644E-11
  1.9560000E-02   -5.6128855E-11
  1.9595001E-02    7.6240646E-11
  1.9630000E-02    7.4865857E-11
  1.9664999E-02   -6.6534285E-11
  1.9700000E-02   -8.6300966E-11
  1.9734999E-02    5.4237583E-11
  1.9770000E-02    8.9769997E-11
  1.9804999E-02   -4.2326663E-11
  1.9840000E-02   -8.5772861E-11
  1.9874999E-02    3.3362382E-11
  1.9910000E-02    7.5745243E-11
  1.9944999E-02   -2.9239416E-11
  1.9980000E-02   -6.1851926E-11
  2.0014999E-02    3.0932829E-11
  2.0050000E-02    4.6710979E-11
  2.0085000E-02   -3.8237826E-11
  2.0120000E-02   -3.2926998E-11
  2.0155000E-02    4.9653736E-11
  2.0190001E-02    2.2434683E-11
  2.0225000E-02   -6.2614539E-11
  2.0260001E-02   -1.5829985E-11
  2.0295000E-02    7.4192409E-11
  2.0330001E-02    1.2036011E-11
  2.0365000E-02   -8.2149273E-11
  2.0400001E-02   -8.6500243E-12
  2.0435000E-02    8.5884203E-11
  2.0470001E-02    3.0206042E-12
  2.0505000E-02   -8.6677249E-11
  2.0540001E-02    6.4046867E-12
  2.0575000E-02    8.6932107E-11
  2.0609999E-02   -1.9228528E-11
  2.0645000E-02   -8.8717880E-11
  2.0679999E-02    3.3354153E-11
  2.0715000E-02    9.2436912E-11
  2.0749999E-02   -4.6321443E-11
  2.0785000E-02   -9.6508745E-11
  2.0819999E-02    5.6983470E-11
  2.0855000E-02    9.8430007E-11
  2.0889999E-02   -6.6417871E-11
  2.0925000E-02   -9.6693570E-11
  2.0959999E-02    7.7295233E-11
  2.0995000E-02    9.2382067E-11
  2.1029999E-02   -9.1792643E-11
  2.1065000E-02   -8.9166730E-11
  2.1100000E-02    1.0920483E-10
  2.1135001E-02    9.1213585E-11
  2.1170000E-02   -1.2503810E-10
  2.1205001E-02   -1.0001278E-10
  2.1240000E-02    1.3271192E-10
  2.1275001E-02    1.1229020E-10
  2.1310000E-02   -1.2715064E-10
  2.1345001E-02   -1.2063384E-10
  2.1380000E-02    1.0816314E-10
  2.1415001E-02    1.1677717E-10
  2.1450000E-02   -8.1593204E-11
  2.1485001E-02   -9.6052236E-11
  2.1520000E-02    5.7153098E-11
  2.1555001E-02    6.0597430E-11
  2.1590000E-02   -4.3472725E-11
  2.1624999E-02   -1.8806727E-11
  2.1660000E-02    4.3262040E-11
  2.1694999E-02   -1.9259568E-11
  2.1730000E-02   -5.2166733E-11
  2.1764999E-02    4.7387028E-11
  2.1800000E-02    6.2090173E-11
  2.1834999E-02   -6.5903782E-11
  2.1870000E-02   -6.6510041E-11
  2.1904999E-02    8.0173694E-11
  2.1940000E-02    6.4601970E-11
  2.1974999E-02   -9.5707692E-11
  2.2010000E-02   -6.1472744E-11
  2.2045000E-02    1.1268550E-10
  2.2080000E-02    6.3404178E-11
  2.2115000E-02   -1.2443455E-10
  2.2150001E-02   -7.1246203E-11
  2.2185000E-02    1.2204247E-10
  2.2220001E-02    7.7688848E-11
  2.2255000E-02   -1.0169799E-10
  2.2290001E-02   -7.0867229E-11
  2.2325000E-02    6.9382410E-11
  2.2360001E-02    4.2201038E-11
  2.2395000E-02   -3.9492028E-11
  2.2430001E-02    5.8709127E-12
  2.2465000E-02    2.6498871E-11
  2.2500001E-02   -5.8379239E-11
  2.2535000E-02   -3.3976804E-11
  2.2569999E-02    9.6241841E-11
  2.2605000E-02    5.0378361E-11
  2.2639999E-02   -1.0877975E-10
  2.2675000E-02   -5.5318784E-11
  2.2709999E-02    1.0119933E-10
  2.2745000E-02    3.1675031E-11
  2.2779999E-02   -9.3224761E-11
  2.2815000E-02    2.2551738E-11
  2.2849999E-02    1.0870097E-10
  2.2885000E-02   -8.8327151E-11
  2.2919999E-02   -1.5731925E-10
  2.2955000E-02    1.3616343E-10
  2.2990000E-02    2.2421592E-10
  2.3025000E-02   -1.4731609E-10
  2.3060000E-02   -2.7865049E-10
  2.3095001E-02    1.2744286E-10
  2.3130000E-02    2.9470418E-10
  2.3165001E-02   -1.0123314E-10
  2.3200000E-02   -2.6385363E-10
  2.3235001E-02    1.0207887E-10
  2.3270000E-02    2.0460152E-10
  2.3305001E-02   -1.5047781E-10
  2.3340000E-02   -1.5446054E-10
  2.3375001E-02    2.3676644E-10
  2.3410000E-02    1.4661825E-10
  2.3445001E-02   -3.1991959E-10
  2.3480000E-02   -1.7725535E-10
  2.3514999E-02    3.6554629E-10
  2.3550000E-02    2.1809528E-10
  2.3584999E-02   -3.5994585E-10
  2.3620000E-02   -2.2854509E-10
  2.3654999E-02    3.2411238E-10
  2.3690000E-02    1.8812862E-10
  2.3724999E-02   -2.9098873E-10
  2.3760000E-02   -9.5193797E-11
  2.3794999E-02    3.0720887E-10
  2.3830000E-02    3.7434135E-13
  2.3864999E-02   -3.6572115E-10
  2.3900000E-02    6.1206110E-11
  2.3934999E-02    4.4031156E-10
  2.3970000E-02   -6.3947611E-11
  2.4005000E-02   -4.6776294E-10
  2.4040001E-02    5.5107693E-11
  2.4075000E-02    4.4898410E-10
  2.4110001E-02   -5.2225425E-11
  2.4145000E-02   -3.6485326E-10
  2.4180001E-02    1.3002988E-10
  2.4215000E-02    3.0245403E-10
  2.4250001E-02   -2.4883542E-10
  2.4285000E-02   -2.7278563E-10
  2.4320001E-02    4.1338985E-10
  2.4355000E-02    3.5898992E-10
  2.4390001E-02   -4.8060278E-10
  2.4425000E-02   -4.3854137E-10
  2.4460001E-02    5.0828453E-10
  2.4495000E-02    5.5240551E-10
  2.4529999E-02   -3.9090794E-10
  2.4565000E-02   -5.1515886E-10
  2.4599999E-02    3.2639080E-10
  2.4635000E-02    4.7312743E-10
  2.4669999E-02   -1.9819271E-10
  2.4705000E-02   -2.5381086E-10
  2.4739999E-02    2.8387609E-10
  2.4775000E-02    1.9505254E-10
  2.4809999E-02   -2.6789834E-10
  2.4845000E-02   -2.3652963E-11
  2.4879999E-02    4.4645107E-10
  2.4915000E-02    1.3302444E-10
  2.4950000E-02   -3.2385772E-10
  2.4985000E-02    1.8345070E-11
  2.5020000E-02    4.4221576E-10
  2.5055001E-02    1.3068577E-10
  2.5090000E-02   -1.5740301E-10
  2.5125001E-02    1.9066949E-10
  2.5160000E-02    3.4539785E-10
  2.5195001E-02   -6.0416158E-11
  2.5230000E-02   -5.8011356E-11
  2.5265001E-02    5.1200044E-10
  2.5300000E-02    4.9888099E-10
  2.5335001E-02   -1.5079532E-10
  2.5370000E-02   -1.4366669E-10
  2.5405001E-02    5.6757438E-10
  2.5440000E-02    6.6821737E-10
  2.5474999E-02    8.8344602E-11
  2.5510000E-02    2.3594644E-11
  2.5544999E-02    5.1309290E-10
  2.5580000E-02    5.7564353E-10
  2.5614999E-02    3.0311548E-10
  2.5650000E-02    4.4662643E-10
  2.5684999E-02    6.9252715E-10
  2.5720000E-02    4.5982537E-10
  2.5754999E-02    3.1121203E-10
  2.5790000E-02    7.4949463E-10
  2.5824999E-02    1.0268176E-09
  2.5860000E-02    6.7200961E-10
  2.5895000E-02    5.0947535E-10
  2.5930000E-02    9.4893726E-10
  2.5965000E-02    1.1734124E-09
  2.6000001E-02    9.0748237E-10
  2.6035000E-02    9.2979263E-10
  2.6070001E-02    1.3123110E-09
  2.6105000E-02    1.3042685E-09
  2.6140001E-02    1.0797454E-09
  2.6175000E-02    1.4032819E-09
  2.6210001E-02    1.8694126E-09
  2.6245000E-02    1.6712698E-09
  2.6280001E-02    1.3824536E-09
  2.6315000E-02    1.8253097E-09
  2.6350001E-02    2.3124120E-09
  2.6385000E-02    2.0680329E-09
  2.6419999E-02    1.8809450E-09
  2.6455000E-02    2.4336360E-09
  2.6489999E-02    2.8339249E-09
  2.6525000E-02    2.5227624E-09
  2.6559999E-02    2.5053963E-09
  2.6595000E-02    3.2061509E-09
  2.6629999E-02    3.4927039E-09
  2.6665000E-02    3.0505012E-09
  2.6699999E-02    3.1180152E-09
  2.6735000E-02    3.9319019E-09
  2.6769999E-02    4.2150941E-09
  2.6805000E-02    3.8169126E-09
  2.6839999E-02    3.9855506E-09
  2.6875000E-02    4.7509654E-09
  2.6910000E-02    4.9378754E-09
  2.6945001E-02    4.6676059E-09
  2.6980000E-02    5.0066085E-09