 -4.8000002E-03    1.0000000E-24
 -4.7650002E-03    1.0000000E-24
 -4.7300002E-03    1.0000001E-24
 -4.6950001E-03    1.0000002E-24
 -4.6600001E-03    1.0000001E-24
 -4.6250001E-03    1.0000000E-24
 -4.5900000E-03    1.0000000E-24
 -4.5550000E-03    1.0000002E-24
 -4.5200000E-03    1.0000000E-24
 -4.4849999E-03    1.0000000E-24
 -4.4499999E-03    1.0000002E-24
 -4.4149999E-03    1.0000003E-24
 -4.3799998E-03    1.0000002E-24
 -4.3449998E-03    1.0000000E-24
 -4.3100002E-03    9.9999992E-25
 -4.2750002E-03    1.0000001E-24
 -4.2400002E-03    1.0000001E-24
 -4.2050001E-03    9.9999992E-25
 -4.1700001E-03    9.9999982E-25
 -4.1350001E-03    1.0000001E-24
 -4.1000000E-03    1.0000004E-24
 -4.0650000E-03    1.0000001E-24
 -4.0300000E-03    9.9999943E-25
 -3.9949999E-03    9.9999972E-25
 -3.9599999E-03    1.0000003E-24
 -3.9249999E-03    1.0000005E-24
 -3.8900001E-03    1.0000001E-24
 -3.8550000E-03    9.9999992E-25
 -3.8200000E-03    1.0000000E-24
 -3.7849999E-03    1.0000002E-24
 -3.7499999E-03    1.0000003E-24
 -3.7150001E-03    1.0000001E-24
 -3.6800001E-03    1.0000001E-24
 -3.6450000E-03    1.0000000E-24
 -3.6100000E-03    9.9999992E-25
 -3.5750000E-03    9.9999982E-25
 -3.5399999E-03    1.0000000E-24
 -3.5049999E-03    1.0000002E-24
 -3.4700001E-03    1.0000001E-24
 -3.4350001E-03    1.0000000E-24
 -3.4000000E-03    1.0000001E-24
 -3.3650000E-03    1.0000002E-24
 -3.3300000E-03    1.0000000E-24
 -3.2949999E-03    9.9999982E-25
 -3.2599999E-03    9.9999972E-25
 -3.2250001E-03    9.9999982E-25
 -3.1900001E-03    1.0000001E-24
 -3.1550000E-03    1.0000003E-24
 -3.1200000E-03    1.0000002E-24
 -3.0850000E-03    1.0000000E-24
 -3.0499999E-03    1.0000001E-24
 -3.0149999E-03    1.0000001E-24
 -2.9800001E-03    9.9999982E-25
 -2.9450001E-03    9.9999992E-25
 -2.9100000E-03    1.0000003E-24
 -2.8750000E-03    1.0000002E-24
 -2.8400000E-03    9.9999992E-25
 -2.8049999E-03    1.0000000E-24
 -2.7699999E-03    1.0000004E-24
 -2.7350001E-03    1.0000003E-24
 -2.7000001E-03    9.9999972E-25
 -2.6650000E-03    9.9999953E-25
 -2.6300000E-03    1.0000000E-24
 -2.5950000E-03    1.0000009E-24
 -2.5599999E-03    1.0000008E-24
 -2.5249999E-03    1.0000000E-24
 -2.4900001E-03    9.9999972E-25
 -2.4550001E-03    1.0000001E-24
 -2.4200000E-03    1.0000005E-24
 -2.3850000E-03    1.0000004E-24
 -2.3500000E-03    9.9999992E-25
 -2.3149999E-03    9.9999943E-25
 -2.2799999E-03    9.9999953E-25
 -2.2450001E-03    1.0000001E-24
 -2.2100001E-03    1.0000004E-24
 -2.1750000E-03    1.0000002E-24
 -2.1400000E-03    9.9999992E-25
 -2.1050000E-03    1.0000000E-24
 -2.0699999E-03    1.0000005E-24
 -2.0349999E-03    1.0000009E-24
 -2.0000001E-03    1.0000003E-24
 -1.9650001E-03    9.9999963E-25
 -1.9300000E-03    9.9999972E-25
 -1.8950000E-03    1.0000003E-24
 -1.8600000E-03    1.0000001E-24
 -1.8250000E-03    9.9999953E-25
 -1.7900000E-03    9.9999982E-25
 -1.7550000E-03    1.0000004E-24
 -1.7199999E-03    1.0000003E-24
 -1.6850000E-03    9.9999972E-25
 -1.6500000E-03    9.9999943E-25
 -1.6150000E-03    9.9999992E-25
 -1.5800000E-03    1.0000005E-24
 -1.5450000E-03    1.0000005E-24
 -1.5100000E-03    1.0000002E-24
 -1.4750001E-03    9.9999982E-25
 -1.4400000E-03    9.9999963E-25
 -1.4050000E-03    9.9999992E-25
 -1.3700000E-03    1.0000010E-24
 -1.3350000E-03    1.0000010E-24
 -1.3000000E-03    9.9999963E-25
 -1.2650000E-03    9.9999864E-25
 -1.2300001E-03    9.9999923E-25
 -1.1950000E-03    1.0000004E-24
 -1.1600000E-03    1.0000013E-24
 -1.1250000E-03    1.0000009E-24
 -1.0900000E-03    9.9999953E-25
 -1.0550000E-03    9.9999913E-25
 -1.0200000E-03    1.0000000E-24
 -9.8500005E-04    1.0000000E-24
 -9.5000002E-04    1.0000001E-24
 -9.1499998E-04    1.0000011E-24
 -8.8000001E-04    1.0000014E-24
 -8.4499997E-04    1.0000001E-24
 -8.1000000E-04    9.9999913E-25
 -7.7500002E-04    9.9999943E-25
 -7.3999999E-04    1.0000001E-24
 -7.0500001E-04    1.0000006E-24
 -6.6999998E-04    1.0000003E-24
 -6.3500000E-04    9.9999953E-25
 -6.0000003E-04    9.9999963E-25
 -5.6499999E-04    1.0000002E-24
 -5.3000002E-04    1.0000000E-24
 -4.9499999E-04    1.0000005E-24
 -4.6000001E-04    1.0000008E-24
 -4.2500001E-04    1.0000000E-24
 -3.9000000E-04    9.9999893E-25
 -3.5500000E-04    9.9999913E-25
 -3.1999999E-04    9.9999982E-25
 -2.8499999E-04    1.0000006E-24
 -2.5000001E-04    1.0000008E-24
 -2.1499999E-04    1.0000002E-24
 -1.8000000E-04    9.9999982E-25
 -1.4500000E-04    1.0000002E-24
 -1.1000000E-04    1.0000003E-24
 -7.5000004E-05    9.9999992E-25
 -3.9999999E-05    1.0000002E-24
 -4.9999999E-06    1.0000005E-24
  2.9999999E-05    1.0000004E-24
  6.5000000E-05    1.0000004E-24
  9.9999997E-05    1.0000003E-24
  1.3499999E-04    1.0000002E-24
  1.7000000E-04    1.0000000E-24
  2.0500000E-04    9.9999943E-25
  2.3999999E-04    9.9999933E-25
  2.7500000E-04    9.9999972E-25
  3.1000000E-04    9.9999963E-25
  3.4500001E-04    9.9999933E-25
  3.8000001E-04    9.9999992E-25
  4.1499999E-04    1.0000015E-24
  4.4999999E-04    1.0000022E-24
  4.8500000E-04    1.0000008E-24
  5.2000000E-04    9.9999884E-25
  5.5499998E-04    9.9999834E-25
  5.9000001E-04    9.9999953E-25
  6.2499999E-04    1.0000015E-24
  6.6000002E-04    1.0000019E-24
  6.9500000E-04    9.9999982E-25
  7.3000003E-04    9.9999824E-25
  7.6500000E-04    9.9999933E-25
  7.9999998E-04    1.0000006E-24
  8.3500001E-04    1.0000003E-24
  8.6999999E-04    9.9999943E-25
  9.0500002E-04    9.9999972E-25
  9.4000000E-04    1.0000005E-24
  9.7499997E-04    1.0000005E-24
  1.0100000E-03    1.0000000E-24
  1.0450000E-03    9.9999972E-25
  1.0800000E-03    9.9999992E-25
  1.1150000E-03    9.9999982E-25
  1.1500000E-03    9.9999963E-25
  1.1849999E-03    1.0000005E-24
  1.2200000E-03    1.0000011E-24
  1.2550000E-03    1.0000004E-24
  1.2900000E-03    1.0000001E-24
  1.3250000E-03    1.0000001E-24
  1.3600000E-03    9.9999943E-25
  1.3950000E-03    9.9999923E-25
  1.4299999E-03    1.0000001E-24
  1.4650000E-03    1.0000007E-24
  1.5000000E-03    1.0000004E-24
  1.5350000E-03    1.0000001E-24
  1.5700000E-03    9.9999953E-25
  1.6050000E-03    9.9999943E-25
  1.6400000E-03    1.0000007E-24
  1.6749999E-03    1.0000015E-24
  1.7100000E-03    1.0000006E-24
  1.7450000E-03    9.9999963E-25
  1.7800000E-03    9.9999963E-25
  1.8150000E-03    9.9999963E-25
  1.8500000E-03    9.9999963E-25
  1.8850000E-03    1.0000000E-24
  1.9200000E-03    9.9999972E-25
  1.9550000E-03    9.9999933E-25
  1.9900000E-03    1.0000006E-24
  2.0250001E-03    1.0000017E-24
  2.0600001E-03    1.0000007E-24
  2.0949999E-03    9.9999992E-25
  2.1299999E-03    9.9999963E-25
  2.1650000E-03    9.9999923E-25
  2.2000000E-03    9.9999943E-25
  2.2350000E-03    1.0000007E-24
  2.2700001E-03    1.0000013E-24
  2.3050001E-03    1.0000007E-24
  2.3399999E-03    1.0000001E-24
  2.3749999E-03    1.0000000E-24
  2.4100000E-03    9.9999972E-25
  2.4450000E-03    9.9999933E-25
  2.4800000E-03    9.9999982E-25
  2.5150001E-03    1.0000006E-24
  2.5500001E-03    1.0000000E-24
  2.5849999E-03    9.9999953E-25
  2.6199999E-03    1.0000002E-24
  2.6550000E-03    1.0000003E-24
  2.6900000E-03    1.0000002E-24
  2.7250000E-03    1.0000004E-24
  2.7600001E-03    9.9999982E-25
  2.7950001E-03    9.9999893E-25
  2.8299999E-03    9.9999982E-25
  2.8649999E-03    1.0000011E-24
  2.9000000E-03    1.0000012E-24
  2.9350000E-03    1.0000009E-24
  2.9700000E-03    1.0000000E-24
  3.0050001E-03    9.9999874E-25
  3.0400001E-03    9.9999893E-25
  3.0749999E-03    1.0000000E-24
  3.1099999E-03    9.9999972E-25
  3.1450000E-03    9.9999963E-25
  3.1800000E-03    1.0000009E-24
  3.2150000E-03    1.0000010E-24
  3.2500001E-03    9.9999972E-25
  3.2850001E-03    1.0000001E-24
  3.3199999E-03    1.0000010E-24
  3.3549999E-03    1.0000006E-24
  3.3900000E-03    1.0000002E-24
  3.4250000E-03    1.0000000E-24
  3.4600000E-03    9.9999943E-25
  3.4950001E-03    9.9999992E-25
  3.5300001E-03    1.0000013E-24
  3.5649999E-03    1.0000009E-24
  3.5999999E-03    9.9999953E-25
  3.6350000E-03    9.9999893E-25
  3.6700000E-03    9.9999864E-25
  3.7050000E-03    9.9999963E-25
  3.7400001E-03    1.0000017E-24
  3.7750001E-03    1.0000012E-24
  3.8099999E-03    9.9999903E-25
  3.8449999E-03    9.9999933E-25
  3.8800000E-03    9.9999992E-25
  3.9149998E-03    9.9999874E-25
  3.9499998E-03    1.0000001E-24
  3.9849998E-03    1.0000023E-24
  4.0199999E-03    1.0000010E-24
  4.0549999E-03    9.9999923E-25
  4.0899999E-03    1.0000001E-24
  4.1250000E-03    1.0000002E-24
  4.1600000E-03    9.9999923E-25
  4.1950000E-03    9.9999992E-25
  4.2300001E-03    1.0000001E-24
  4.2650001E-03    9.9999893E-25
  4.3000001E-03    9.9999953E-25
  4.3350002E-03    1.0000016E-24
  4.3700002E-03    1.0000017E-24
  4.4049998E-03    1.0000003E-24
  4.4399998E-03    9.9999913E-25
  4.4749998E-03    9.9999815E-25
  4.5099999E-03    9.9999884E-25
  4.5449999E-03    1.0000008E-24
  4.5799999E-03    1.0000021E-24
  4.6150000E-03    1.0000020E-24
  4.6500000E-03    1.0000004E-24
  4.6850001E-03    9.9999785E-25
  4.7200001E-03    9.9999716E-25
  4.7550001E-03    9.9999972E-25
  4.7900002E-03    1.0000026E-24
  4.8250002E-03    1.0000026E-24
  4.8600002E-03    1.0000008E-24
  4.8949998E-03    9.9999884E-25
  4.9299998E-03    9.9999805E-25
  4.9649999E-03    9.9999943E-25
  4.9999999E-03    1.0000016E-24
  5.0349999E-03    1.0000010E-24
  5.0700000E-03    9.9999953E-25
  5.1050000E-03    9.9999963E-25
  5.1400000E-03    9.9999923E-25
  5.1750001E-03    9.9999815E-25
  5.2100001E-03    1.0000000E-24
  5.2450001E-03    1.0000024E-24
  5.2800002E-03    1.0000006E-24
  5.3150002E-03    9.9999844E-25
  5.3500002E-03    1.0000001E-24
  5.3849998E-03    1.0000017E-24
  5.4199998E-03    1.0000010E-24
  5.4549999E-03    1.0000000E-24
  5.4899999E-03    9.9999923E-25
  5.5249999E-03    9.9999982E-25
  5.5600000E-03    1.0000010E-24
  5.5950000E-03    1.0000002E-24
  5.6300000E-03    1.0000002E-24
  5.6650001E-03    1.0000015E-24
  5.7000001E-03    9.9999953E-25
  5.7350001E-03    9.9999617E-25
  5.7700002E-03    9.9999815E-25
  5.8050002E-03    1.0000021E-24
  5.8400002E-03    1.0000028E-24
  5.8749998E-03    1.0000012E-24
  5.9099998E-03    9.9999923E-25
  5.9449999E-03    9.9999815E-25
  5.9799999E-03    9.9999893E-25
  6.0149999E-03    1.0000012E-24
  6.0500000E-03    1.0000016E-24
  6.0850000E-03    1.0000000E-24
  6.1200000E-03    1.0000000E-24
  6.1550001E-03    1.0000007E-24
  6.1900001E-03    9.9999913E-25
  6.2250001E-03    9.9999854E-25
  6.2600002E-03    1.0000000E-24
  6.2950002E-03    1.0000000E-24
  6.3299998E-03    9.9999933E-25
  6.3649998E-03    1.0000004E-24
  6.3999998E-03    1.0000006E-24
  6.4349999E-03    1.0000008E-24
  6.4699999E-03    1.0000019E-24
  6.5049999E-03    9.9999953E-25
  6.5400000E-03    9.9999716E-25
  6.5750000E-03    1.0000002E-24
  6.6100000E-03    1.0000020E-24
  6.6450001E-03    1.0000000E-24
  6.6800001E-03    1.0000012E-24
  6.7150001E-03    1.0000019E-24
  6.7500002E-03    9.9999834E-25
  6.7850002E-03    9.9999765E-25
  6.8199998E-03    1.0000004E-24
  6.8549998E-03    1.0000010E-24
  6.8899998E-03    1.0000006E-24
  6.9249999E-03    1.0000005E-24
  6.9599999E-03    9.9999963E-25
  6.9949999E-03    9.9999992E-25
  7.0300000E-03    1.0000005E-24
  7.0650000E-03    9.9999953E-25
  7.1000000E-03    9.9999933E-25
  7.1350001E-03    1.0000009E-24
  7.1700001E-03    1.0000013E-24
  7.2050001E-03    9.9999923E-25
  7.2400002E-03    9.9999805E-25
  7.2750002E-03    1.0000015E-24
  7.3099998E-03    1.0000052E-24
  7.3449998E-03    1.0000004E-24
  7.3799998E-03    9.9999144E-25
  7.4149999E-03    9.9999460E-25
  7.4499999E-03    1.0000099E-24
  7.4850000E-03    1.0000117E-24
  7.5200000E-03    9.9998917E-25
  7.5550000E-03    9.9997833E-25
  7.5900001E-03    1.0000107E-24
  7.6250001E-03    1.0000372E-24
  7.6600001E-03    9.9999331E-25
  7.6950002E-03    9.9993918E-25
  7.7300002E-03    9.9999223E-25
  7.7650002E-03    1.0000910E-24
  7.7999998E-03    1.0000383E-24
  7.8349998E-03    9.9987015E-25
  7.8699999E-03    9.9990082E-25
  7.9049999E-03    1.0001705E-24
  7.9399999E-03    1.0002085E-24
  7.9750000E-03    9.9980576E-25
  8.0100000E-03    9.9961969E-25
  8.0450000E-03    1.0001749E-24
  8.0800001E-03    1.0006352E-24
  8.1150001E-03    9.9993602E-25
  8.1500001E-03    9.9901108E-25
  8.1850002E-03    9.9977776E-25
  8.2200002E-03    1.0014295E-24
  8.2550002E-03    1.0008022E-24
  8.2900003E-03    9.9809768E-25
  8.3250003E-03    9.9815556E-25
  8.3600003E-03    1.0022531E-24
  8.3950004E-03    1.0035237E-24
  8.4300004E-03    9.9778007E-25
  8.4650004E-03    9.9395942E-25
  8.5000005E-03    1.0012891E-24
  8.5349996E-03    1.0094771E-24
  8.5699996E-03    1.0012780E-24
  8.6049996E-03    9.8628193E-25
  8.6399997E-03    9.9342092E-25
  8.6749997E-03    1.0181242E-24
  8.7099997E-03    1.0159607E-24
  8.7449998E-03    9.7863244E-25
  8.7799998E-03    9.6900765E-25
  8.8149998E-03    1.0208129E-24
  8.8499999E-03    1.0529835E-24
  8.8849999E-03    9.8783342E-25
  8.9199999E-03    9.1772587E-25
  8.9550000E-03    9.8896405E-25
  8.9900000E-03    1.1168884E-24
  9.0250000E-03    1.0574562E-24
  9.0600001E-03    8.4930826E-25
  9.0950001E-03    8.6251705E-25
  9.1300001E-03    1.1709205E-24
  9.1650002E-03    1.2614923E-24
  9.2000002E-03    8.4477546E-25
  9.2350002E-03    5.6357663E-25
  9.2700003E-03    1.0679804E-24
  9.3050003E-03    1.6580259E-24
  9.3400003E-03    1.1390795E-24
  9.3750004E-03    9.6586058E-26
  9.4100004E-03    4.7025433E-25
  9.4450004E-03    2.1133615E-24
  9.4799995E-03    2.1703739E-24
  9.5149996E-03   -1.7771248E-25
  9.5499996E-03   -1.1159226E-24
  9.5849996E-03    1.9180054E-24
  9.6199997E-03    4.3762721E-24
  9.6549997E-03    9.2410539E-25
  9.6899997E-03   -3.8684327E-24
  9.7249998E-03   -6.8567351E-25
  9.7599998E-03    7.3472872E-24
  9.7949998E-03    5.7575885E-24
  9.8299999E-03   -6.3062736E-24
  9.8649999E-03   -8.4968910E-24
  9.8999999E-03    7.8896330E-24
  9.9350000E-03    1.7077562E-23
  9.9700000E-03   -2.8284497E-24
  1.0005000E-02   -2.3270772E-23
  1.0040000E-02   -2.5903812E-24
  1.0075000E-02    3.4081644E-23
  1.0110000E-02    1.8387739E-23
  1.0145000E-02   -3.9345015E-23
  1.0180000E-02   -3.8609320E-23
  1.0215000E-02    4.3193659E-23
  1.0250000E-02    7.2580176E-23
  1.0285000E-02   -3.1808200E-23
  1.0320000E-02   -1.1198394E-22
  1.0355000E-02    5.0527641E-24
  1.0390000E-02    1.6117603E-22
  1.0425000E-02    5.4949394E-23
  1.0460000E-02   -2.0329578E-22
  1.0495000E-02   -1.5049126E-22
  1.0530000E-02    2.3020703E-22
  1.0565000E-02    2.9779009E-22
  1.0600000E-02   -2.0823949E-22
  1.0635000E-02   -4.9015465E-22
  1.0670000E-02    1.0957320E-22
  1.0705000E-02    7.2378642E-22
  1.0740000E-02    1.1872849E-22
  1.0775000E-02   -9.5717055E-22
  1.0810000E-02   -5.1749225E-22
  1.0845000E-02    1.1336960E-21
  1.0880000E-02    1.1370642E-21
  1.0915000E-02   -1.1403066E-21
  1.0950000E-02   -1.9866400E-21
  1.0985000E-02    8.3581981E-22
  1.1020000E-02    3.0412745E-21
  1.1055000E-02   -2.0570678E-23
  1.1090000E-02   -4.1738096E-21
  1.1125000E-02   -1.5110031E-21
  1.1160000E-02    5.1496299E-21
  1.1195000E-02    3.9649376E-21
  1.1230000E-02   -5.5557271E-21
  1.1265000E-02   -7.4434930E-21
  1.1300000E-02    4.8133095E-21
  1.1335000E-02    1.1880651E-20
  1.1370000E-02   -2.1533850E-21
  1.1405000E-02   -1.6879577E-20
  1.1440000E-02   -3.2936844E-21
  1.1475000E-02    2.1587913E-20
  1.1510000E-02    1.2377156E-20
  1.1545000E-02   -2.4528786E-20
  1.1580000E-02   -2.5651349E-20
  1.1615000E-02    2.3538969E-20
  1.1650000E-02    4.3047461E-20
  1.1685000E-02   -1.5747129E-20
  1.1720000E-02   -6.3359450E-20
  1.1755000E-02   -2.1814082E-21
  1.1790000E-02    8.3722297E-20
  1.1825000E-02    3.3559260E-20
  1.1860000E-02   -9.9089982E-20
  1.1895000E-02   -8.0847276E-20
  1.1930000E-02    1.0187854E-19
  1.1965000E-02    1.4436849E-19
  1.2000000E-02   -8.2003112E-20
  1.2035000E-02   -2.2072712E-19
  1.2070000E-02    2.7530270E-20
  1.2105000E-02    3.0088470E-19
  1.2140000E-02    7.3703828E-20
  1.2175000E-02   -3.6836175E-19
  1.2210000E-02   -2.3118610E-19
  1.2245000E-02    3.9820227E-19
  1.2280000E-02    4.4782281E-19
  1.2315000E-02   -3.5681658E-19
  1.2350000E-02   -7.1441361E-19
  1.2385000E-02    2.0433240E-19
  1.2420000E-02    1.0040413E-18
  1.2455000E-02    1.0069178E-19
  1.2490000E-02   -1.2658966E-18
  1.2525000E-02   -5.9197217E-19
  1.2560000E-02    1.4218770E-18
  1.2595000E-02    1.2829998E-18
  1.2630000E-02   -1.3668991E-18
  1.2665000E-02   -2.1510946E-18
  1.2700000E-02    9.7482480E-19
  1.2735000E-02    3.1188804E-18
  1.2770000E-02   -1.1437257E-19
  1.2805000E-02   -4.0374500E-18
  1.2840000E-02   -1.3241754E-18
  1.2875000E-02    4.6759312E-18
  1.2910000E-02    3.3921988E-18
  1.2945000E-02   -4.7221301E-18
  1.2980000E-02   -6.0349766E-18
  1.3015000E-02    3.8021791E-18
  1.3050000E-02    9.0410345E-18
  1.3085000E-02   -1.5265504E-18
  1.3120000E-02   -1.1995581E-17
  1.3155000E-02   -2.4385123E-18
  1.3190000E-02    1.4246740E-17
  1.3225000E-02    8.2577705E-18
  1.3260000E-02   -1.4920831E-17
  1.3295000E-02   -1.5807977E-17
  1.3330000E-02    1.2969404E-17
  1.3365000E-02    2.4530503E-17
  1.3400000E-02   -7.3001650E-18
  1.3435000E-02   -3.3313101E-17
  1.3470000E-02   -3.0166255E-18
  1.3505000E-02    4.0418401E-17
  1.3540000E-02    1.8469587E-17
  1.3575000E-02   -4.3506951E-17
  1.3610000E-02   -3.8767325E-17
  1.3645000E-02    3.9799987E-17
  1.3680000E-02    6.2479718E-17
  1.3715000E-02   -2.6429656E-17
  1.3750000E-02   -8.6756066E-17
  1.3785000E-02    9.5563545E-19
  1.3820000E-02    1.0714288E-16
  1.3855000E-02    3.7888101E-17
  1.3890000E-02   -1.1771623E-16
  1.3925000E-02   -8.9389538E-17
  1.3960000E-02    1.1150183E-16
  1.3995000E-02    1.4998825E-16
  1.4030000E-02   -8.1371755E-17
  1.4065000E-02   -2.1259574E-16
  1.4100000E-02    2.1398018E-17
  1.4135000E-02    2.6632950E-16
  1.4170000E-02    7.1425861E-17
  1.4205000E-02   -2.9678176E-16
  1.4240000E-02   -1.9512170E-16
  1.4275000E-02    2.8738197E-16
  1.4310000E-02    3.4092062E-16
  1.4345000E-02   -2.2151168E-16
  1.4380000E-02   -4.9178336E-16
  1.4415000E-02    8.5739501E-17
  1.4450000E-02    6.2194543E-16
  1.4485000E-02    1.2594696E-16
  1.4520000E-02   -6.9816892E-16
  1.4555000E-02   -4.0769549E-16
  1.4590000E-02    6.8303440E-16
  1.4625000E-02    7.3795263E-16
  1.4660000E-02   -5.4030749E-16
  1.4695000E-02   -1.0768111E-15
  1.4730000E-02    2.4238907E-16
  1.4765000E-02    1.3656668E-15
  1.4800000E-02    2.2014190E-16
  1.4835000E-02   -1.5311709E-15
  1.4870000E-02   -8.2942737E-16
  1.4905000E-02    1.4935843E-15
  1.4940000E-02    1.5324220E-15
  1.4975000E-02   -1.1800021E-15
  1.5010000E-02   -2.2375496E-15
  1.5045000E-02    5.4078167E-16
  1.5080000E-02    2.8163445E-15
  1.5115000E-02    4.2999061E-16
  1.5150000E-02   -3.1160828E-15
  1.5185000E-02   -1.6780852E-15
  1.5220000E-02    2.9785560E-15
  1.5255000E-02    3.0750222E-15
  1.5290000E-02   -2.2715340E-15
  1.5325000E-02   -4.4159775E-15
  1.5360000E-02    9.2477596E-16
  1.5395000E-02    5.4330430E-15
  1.5430000E-02    1.0329865E-15
  1.5465000E-02   -5.8253471E-15
  1.5500000E-02   -3.4430964E-15
  1.5535000E-02    5.3076660E-15
  1.5570000E-02    5.9998554E-15
  1.5605000E-02   -3.6795535E-15
  1.5640000E-02   -8.2651874E-15
  1.5675001E-02    8.9134865E-16
  1.5710000E-02    9.7063513E-15
  1.5745001E-02    2.8851304E-15
  1.5780000E-02   -9.7820311E-15
  1.5814999E-02   -7.2187638E-15
  1.5850000E-02    8.0482860E-15
  1.5884999E-02    1.1415584E-14
  1.5920000E-02   -4.2921213E-15
  1.5954999E-02   -1.4577612E-14
  1.5990000E-02   -1.3385631E-15
  1.6024999E-02    1.5728717E-14
  1.6060000E-02    8.2390124E-15
  1.6094999E-02   -1.4007657E-14
  1.6130000E-02   -1.5326580E-14
  1.6164999E-02    8.8950716E-15
  1.6200000E-02    2.1114011E-14
  1.6235000E-02   -4.4962192E-16
  1.6270000E-02   -2.3893819E-14
  1.6305000E-02   -1.0485019E-14
  1.6340001E-02    2.2065037E-14
  1.6375000E-02    2.2205682E-14
  1.6410001E-02   -1.4530549E-14
  1.6445000E-02   -3.2225877E-14
  1.6480001E-02    1.1452923E-15
  1.6515000E-02    3.7587843E-14
  1.6550001E-02    1.6927693E-14
  1.6585000E-02   -3.5347915E-14
  1.6620001E-02   -3.6971697E-14
  1.6655000E-02    2.3326266E-14
  1.6690001E-02    5.4844218E-14
  1.6725000E-02   -8.3366338E-16
  1.6759999E-02   -6.5362036E-14
  1.6795000E-02   -3.0558611E-14
  1.6829999E-02    6.3195807E-14
  1.6865000E-02    6.6624549E-14
  1.6899999E-02   -4.4012726E-14
  1.6935000E-02   -1.0046080E-13
  1.6969999E-02    5.8736255E-15
  1.7005000E-02    1.2314207E-13
  1.7039999E-02    4.9497163E-14
  1.7075000E-02   -1.2501428E-13
  1.7109999E-02   -1.1575558E-13
  1.7145000E-02    9.7674330E-14
  1.7180000E-02    1.8178835E-13
  1.7215000E-02   -3.6279024E-14
  1.7250000E-02   -2.3249791E-13
  1.7285001E-02   -5.8063648E-14
  1.7320000E-02    2.5093756E-13
  1.7355001E-02    1.7664825E-13
  1.7390000E-02   -2.2130305E-13
  1.7425001E-02   -3.0246021E-13
  1.7460000E-02    1.3285056E-13
  1.7495001E-02    4.1119912E-13
  1.7530000E-02    1.6150531E-14
  1.7565001E-02   -4.7424337E-13
  1.7600000E-02   -2.1527939E-13
  1.7635001E-02    4.6328815E-13
  1.7670000E-02    4.4026558E-13
  1.7704999E-02   -3.5667091E-13
  1.7740000E-02   -6.5420390E-13
  1.7774999E-02    1.4562049E-13
  1.7810000E-02    8.1138910E-13
  1.7844999E-02    1.6009108E-13
  1.7880000E-02   -8.6438875E-13
  1.7914999E-02   -5.2915013E-13
  1.7950000E-02    7.7317504E-13
  1.7984999E-02    9.0921753E-13
  1.8020000E-02   -5.1520929E-13
  1.8054999E-02   -1.2321149E-12
  1.8090000E-02    9.4288367E-14
  1.8124999E-02    1.4233452E-12
  1.8160000E-02    4.5358907E-13
  1.8195000E-02   -1.4155559E-12
  1.8230001E-02   -1.0600580E-12
  1.8265000E-02    1.1631989E-12
  1.8300001E-02    1.6304304E-12
  1.8335000E-02   -6.5613162E-13
  1.8370001E-02   -2.0564542E-12
  1.8405000E-02   -7.1241115E-14
  1.8440001E-02    2.2340868E-12
  1.8475000E-02    9.3751851E-13
  1.8510001E-02   -2.0842772E-12
  1.8545000E-02   -1.8210214E-12
  1.8580001E-02    1.5725109E-12
  1.8615000E-02    2.5758840E-12
  1.8650001E-02   -7.2240597E-13
  1.8685000E-02   -3.0548068E-12
  1.8719999E-02   -3.7908869E-13
  1.8755000E-02    3.1362402E-12
  1.8789999E-02    1.5883134E-12
  1.8825000E-02   -2.7503984E-12
  1.8859999E-02   -2.7231908E-12
  1.8895000E-02    1.8991412E-12
  1.8929999E-02    3.5918065E-12
  1.8965000E-02   -6.6408223E-13
  1.8999999E-02   -4.0256218E-12
  1.9035000E-02   -7.9886081E-13
  1.9069999E-02    3.9126111E-12
  1.9105000E-02    2.2801429E-12
  1.9140000E-02   -3.2223414E-12
  1.9175000E-02   -3.5483237E-12
  1.9210000E-02    2.0193771E-12
  1.9245001E-02    4.3900287E-12
  1.9280000E-02   -4.5896967E-13
  1.9315001E-02   -4.6486903E-12
  1.9350000E-02   -1.2333255E-12
  1.9385001E-02    4.2566558E-12
  1.9420000E-02    2.7970894E-12
  1.9455001E-02   -3.2528769E-12
  1.9490000E-02   -3.9810438E-12
  1.9525001E-02    1.7823359E-12
  1.9560000E-02    4.5881645E-12
  1.9595001E-02   -7.6535898E-14
  1.9630000E-02   -4.5143130E-12
  1.9664999E-02   -1.5835487E-12
  1.9700000E-02    3.7716527E-12
  1.9734999E-02    2.9146080E-12
  1.9770000E-02   -2.4941941E-12
  1.9804999E-02   -3.6831449E-12
  1.9840000E-02    9.2087416E-13
  1.9874999E-02    3.7521865E-12
  1.9910000E-02    6.4113851E-13
  1.9944999E-02   -3.1152015E-12
  1.9980000E-02   -1.8695108E-12
  2.0014999E-02    1.9091282E-12
  2.0050000E-02    2.4877199E-12
  2.0085000E-02   -4.0341672E-13
  2.0120000E-02   -2.3262059E-12
  2.0155000E-02   -1.0379111E-12
  2.0190001E-02    1.3719233E-12
  2.0225000E-02    2.0182770E-12
  2.0260001E-02    2.0399577E-13
  2.0295000E-02   -2.1888112E-12
  2.0330001E-02   -2.0517555E-12
  2.0365000E-02    1.3331528E-12
  2.0400001E-02    3.6852982E-12
  2.0435000E-02    5.5636881E-13
  2.0470001E-02   -4.5646173E-12
  2.0505000E-02   -3.2322480E-12
  2.0540001E-02    4.2074937E-12
  2.0575000E-02    6.1899244E-12
  2.0609999E-02   -2.3167505E-12
  2.0645000E-02   -8.7264970E-12
  2.0679999E-02   -1.1066053E-12
  2.0715000E-02    1.0057862E-11
  2.0749999E-02    5.6904286E-12
  2.0785000E-02   -9.4863535E-12
  2.0819999E-02   -1.0692163E-11
  2.0855000E-02    6.5850641E-12
  2.0889999E-02    1.5086359E-11
  2.0925000E-02   -1.3624970E-12
  2.0959999E-02   -1.7743525E-11
  2.0995000E-02   -5.6434605E-12
  2.1029999E-02    1.7672728E-11
  2.1065000E-02    1.3380312E-11
  2.1100000E-02   -1.4281064E-11
  2.1135001E-02   -2.0424240E-11
  2.1170000E-02    7.5874316E-12
  2.1205001E-02    2.5242456E-11
  2.1240000E-02    1.6747880E-12
  2.1275001E-02   -2.6528836E-11
  2.1310000E-02   -1.2113761E-11
  2.1345001E-02    2.3537630E-11
  2.1380000E-02    2.1905618E-11
  2.1415001E-02   -1.6327746E-11
  2.1450000E-02   -2.9158585E-11
  2.1485001E-02    5.8395285E-12
  2.1520000E-02    3.2336619E-11
  2.1555001E-02    6.2363955E-12
  2.1590000E-02   -3.0640514E-11
  2.1624999E-02   -1.7790521E-11
  2.1660000E-02    2.4237083E-11
  2.1694999E-02    2.6755594E-11
  2.1730000E-02   -1.4262545E-11
  2.1764999E-02   -3.1585772E-11
  2.1800000E-02    2.5787048E-12
  2.1834999E-02    3.1621157E-11
  2.1870000E-02    8.6633478E-12
  2.1904999E-02   -2.7233625E-11
  2.1940000E-02   -1.7542247E-11
  2.1974999E-02    1.9702750E-11
  2.2010000E-02    2.2824694E-11
  2.2045000E-02   -1.0848074E-11
  2.2080000E-02   -2.4227998E-11
  2.2115000E-02    2.5218055E-12
  2.2150001E-02    2.2407434E-11
  2.2185000E-02    3.8866232E-12
  2.2220001E-02   -1.8673538E-11
  2.2255000E-02   -7.7830164E-12
  2.2290001E-02    1.4530696E-11
  2.2325000E-02    9.4381968E-12
  2.2360001E-02   -1.1184940E-11
  2.2395000E-02   -9.7765320E-12
  2.2430001E-02    9.1834231E-12
  2.2465000E-02    9.9601117E-12
  2.2500001E-02   -8.3055524E-12
  2.2535000E-02   -1.0919107E-11
  2.2569999E-02    7.7354312E-12
  2.2605000E-02    1.2996939E-11
  2.2639999E-02   -6.4420877E-12
  2.2675000E-02   -1.5831831E-11
  2.2709999E-02    3.6246559E-12
  2.2745000E-02    1.8512934E-11
  2.2779999E-02    9.4655154E-13
  2.2815000E-02   -1.9945125E-11
  2.2849999E-02   -6.8236449E-12
  2.2885000E-02    1.9269924E-11
  2.2919999E-02    1.3037346E-11
  2.2955000E-02   -1.6180234E-11
  2.2990000E-02   -1.8448403E-11
  2.3025000E-02    1.1001601E-11
  2.3060000E-02    2.2137080E-11
  2.3095001E-02   -4.5213048E-12
  2.3130000E-02   -2.3666308E-11
  2.3165001E-02   -2.3509335E-12
  2.3200000E-02    2.3098181E-11
  2.3235001E-02    8.9090740E-12
  2.3270000E-02   -2.0785089E-11
  2.3305001E-02   -1.4812380E-11
  2.3340000E-02    1.7044335E-11
  2.3375001E-02    1.9985248E-11
  2.3410000E-02   -1.1919058E-11
  2.3445001E-02   -2.4324388E-11
  2.3480000E-02    5.1516430E-12
  2.3514999E-02    2.7321987E-11
  2.3550000E-02    3.4972205E-12
  2.3584999E-02   -2.7908760E-11
  2.3620000E-02   -1.3750939E-11
  2.3654999E-02    2.4640805E-11
  2.3690000E-02    2.4324065E-11
  2.3724999E-02   -1.6338464E-11
  2.3760000E-02   -3.2841504E-11
  2.3794999E-02    2.8490535E-12
  2.3830000E-02    3.6184757E-11
  2.3864999E-02    1.4180164E-11
  2.3900000E-02   -3.1510967E-11
  2.3934999E-02   -3.1142759E-11
  2.3970000E-02    1.7463571E-11
  2.4005000E-02    4.2947482E-11
  2.4040001E-02    4.5722983E-12
  2.4075000E-02   -4.4544580E-11
  2.4110001E-02   -3.0209391E-11
  2.4145000E-02    3.2561641E-11
  2.4180001E-02    5.2476173E-11
  2.4215000E-02   -7.1934333E-12
  2.4250001E-02   -6.3735919E-11
  2.4285000E-02   -2.7176582E-11
  2.4320001E-02    5.7796427E-11
  2.4355000E-02    6.2065707E-11
  2.4390001E-02   -3.2751055E-11
  2.4425000E-02   -8.7324904E-11
  2.4460001E-02   -8.0898699E-12
  2.4495000E-02    9.3513253E-11
  2.4529999E-02    5.5694276E-11
  2.4565000E-02   -7.5700016E-11
  2.4599999E-02   -9.8001600E-11
  2.4635000E-02    3.4818856E-11
  2.4669999E-02    1.2224315E-10
  2.4705000E-02    2.0686222E-11
  2.4739999E-02   -1.2010430E-10
  2.4775000E-02   -7.8046819E-11
  2.4809999E-02    8.9195568E-11
  2.4845000E-02    1.2208286E-10
  2.4879999E-02   -3.5883491E-11
  2.4915000E-02   -1.4135347E-10
  2.4950000E-02   -2.8072449E-11
  2.4985000E-02    1.2945861E-10
  2.5020000E-02    8.6162945E-11
  2.5055001E-02   -9.0029054E-11
  2.5090000E-02   -1.2511746E-10
  2.5125001E-02    3.2339117E-11
  2.5160000E-02    1.3523978E-10
  2.5195001E-02    2.7780177E-11
  2.5230000E-02   -1.1708588E-10
  2.5265001E-02   -7.7081931E-11
  2.5300000E-02    7.6009407E-11
  2.5335001E-02    1.0312962E-10
  2.5370000E-02   -2.6424359E-11
  2.5405001E-02   -1.0447150E-10
  2.5440000E-02   -2.0012377E-11
  2.5474999E-02    8.3107098E-11
  2.5510000E-02    5.0425893E-11
  2.5544999E-02   -5.1184154E-11
  2.5580000E-02   -6.3373432E-11
  2.5614999E-02    1.6122848E-11
  2.5650000E-02    5.6615431E-11
  2.5684999E-02    9.0026380E-12
  2.5720000E-02   -4.0459903E-11
  2.5754999E-02   -2.3350445E-11
  2.5790000E-02    1.9338258E-11
  2.5824999E-02    2.3313459E-11
  2.5860000E-02   -5.0316895E-12
  2.5895000E-02   -1.9265343E-11
  2.5930000E-02   -5.9711186E-12
  2.5965000E-02    9.9914885E-12
  2.6000001E-02    8.0189518E-12
  2.6035000E-02   -5.7854442E-12
  2.6070001E-02   -1.1013474E-11
  2.6105000E-02    3.3353143E-13
  2.6140001E-02    1.0427987E-11
  2.6175000E-02   -3.8733770E-13
  2.6210001E-02   -1.7453034E-11
  2.6245000E-02   -8.2984678E-12
  2.6280001E-02    1.8930345E-11
  2.6315000E-02    1.7124789E-11
  2.6350001E-02   -2.0226709E-11
  2.6385000E-02   -3.4153489E-11
  2.6419999E-02    6.5924588E-12
  2.6455000E-02    4.1603915E-11
  2.6489999E-02    8.4123984E-12
  2.6525000E-02   -4.8290552E-11
  2.6559999E-02   -3.7168553E-11
  2.6595000E-02    3.2443562E-11
  2.6629999E-02    5.5191348E-11
  2.6665000E-02   -9.3478480E-12
  2.6699999E-02   -6.8307214E-11
  2.6735000E-02   -3.1392069E-11
  2.6769999E-02    5.1223980E-11
  2.6805000E-02    5.7973824E-11
  2.6839999E-02   -2.5374385E-11
  2.6875000E-02   -7.9203297E-11
  2.6910000E-02   -2.1456824E-11
  2.6945001E-02    6.7521252E-11
  2.6980000E-02    5.6089310E-11