 -4.8000002E-03    1.0000000E-24
 -4.7650002E-03    1.0000002E-24
 -4.7300002E-03    1.0000001E-24
 -4.6950001E-03    1.0000000E-24
 -4.6600001E-03    1.0000001E-24
 -4.6250001E-03    1.0000002E-24
 -4.5900000E-03    1.0000002E-24
 -4.5550000E-03    9.9999992E-25
 -4.5200000E-03    1.0000001E-24
 -4.4849999E-03    1.0000002E-24
 -4.4499999E-03    1.0000001E-24
 -4.4149999E-03    9.9999972E-25
 -4.3799998E-03    1.0000002E-24
 -4.3449998E-03    1.0000005E-24
 -4.3100002E-03    1.0000004E-24
 -4.2750002E-03    1.0000003E-24
 -4.2400002E-03    9.9999992E-25
 -4.2050001E-03    9.9999982E-25
 -4.1700001E-03    1.0000002E-24
 -4.1350001E-03    1.0000001E-24
 -4.1000000E-03    9.9999982E-25
 -4.0650000E-03    1.0000002E-24
 -4.0300000E-03    1.0000002E-24
 -3.9949999E-03    9.9999982E-25
 -3.9599999E-03    9.9999963E-25
 -3.9249999E-03    9.9999982E-25
 -3.8900001E-03    1.0000004E-24
 -3.8550000E-03    1.0000003E-24
 -3.8200000E-03    9.9999982E-25
 -3.7849999E-03    1.0000004E-24
 -3.7499999E-03    1.0000006E-24
 -3.7150001E-03    9.9999972E-25
 -3.6800001E-03    9.9999982E-25
 -3.6450000E-03    1.0000009E-24
 -3.6100000E-03    9.9999982E-25
 -3.5750000E-03    9.9999903E-25
 -3.5399999E-03    1.0000024E-24
 -3.5049999E-03    1.0000024E-24
 -3.4700001E-03    9.9998592E-25
 -3.4350001E-03    1.0000036E-24
 -3.4000000E-03    1.0000983E-24
 -3.3650000E-03    9.9985260E-25
 -3.3300000E-03    9.9989116E-25
 -3.2949999E-03    1.0007015E-24
 -3.2599999E-03    1.0000376E-24
 -3.2250001E-03    9.9700521E-25
 -3.1900001E-03    1.0018635E-24
 -3.1550000E-03    1.0061185E-24
 -3.1200000E-03    9.9652223E-25
 -3.0850000E-03    9.9239195E-25
 -3.0499999E-03    1.0210524E-24
 -3.0149999E-03    1.0162884E-24
 -2.9800001E-03    9.1585972E-25
 -2.9450001E-03    1.0408319E-24
 -2.9100000E-03    1.1362082E-24
 -2.8750000E-03    6.4006286E-25
 -2.8400000E-03    6.7407913E-25
 -2.8049999E-03    1.6080399E-24
 -2.7699999E-03    1.2068224E-24
 -2.7350001E-03    1.5951563E-25
 -2.7000001E-03    2.7079049E-24
 -2.6650000E-03   -6.4895219E-27
 -2.6300000E-03   -3.9702253E-24
 -2.5950000E-03    7.0110147E-24
 -2.5599999E-03    1.2070227E-23
 -2.5249999E-03   -1.2965505E-23
 -2.4900001E-03   -4.3206432E-24
 -2.4550001E-03    2.5591392E-23
 -2.4200000E-03   -6.5216650E-24
 -2.3850000E-03   -3.4110058E-23
 -2.3500000E-03    2.7796697E-23
 -2.3149999E-03    5.3550825E-23
 -2.2799999E-03   -6.8345180E-23
 -2.2450001E-03   -1.5593897E-22
 -2.2100001E-03    2.9604390E-22
 -2.1750000E-03   -1.3809578E-22
 -2.1400000E-03   -2.6689732E-22
 -2.1050000E-03    1.9165436E-22
 -2.0699999E-03   -1.0992380E-22
 -2.0349999E-03    1.1287871E-22
 -2.0000001E-03   -1.2500858E-22
 -1.9650001E-03   -3.0849220E-23
 -1.9300000E-03    5.6483471E-22
 -1.8950000E-03    5.8779685E-22
 -1.8600000E-03   -2.7010218E-21
 -1.8250000E-03   -8.2429002E-22
 -1.7900000E-03    2.9758667E-21
 -1.7550000E-03    2.3880337E-21
 -1.7199999E-03   -3.4712667E-21
 -1.6850000E-03   -1.3687322E-21
 -1.6500000E-03    4.7853828E-21
 -1.6150000E-03    4.4460409E-21
 -1.5800000E-03   -4.9339587E-21
 -1.5450000E-03    7.5595293E-21
 -1.5100000E-03    6.2875670E-21
 -1.4750001E-03    1.1039249E-21
 -1.4400000E-03    4.6807000E-21
 -1.4050000E-03    2.0909039E-20
 -1.3700000E-03   -1.7191700E-20
 -1.3350000E-03   -8.0961005E-21
 -1.3000000E-03    4.7645277E-20
 -1.2650000E-03    2.4020402E-20
 -1.2300001E-03   -1.0522767E-19
 -1.1950000E-03   -8.0142518E-20
 -1.1600000E-03    1.4377531E-19
 -1.1250000E-03    1.1245810E-19
 -1.0900000E-03   -1.9349798E-19
 -1.0550000E-03   -1.8012248E-19
 -1.0200000E-03    2.2040915E-19
 -9.8500005E-04    3.1078778E-19
 -9.5000002E-04   -3.9553226E-19
 -9.1499998E-04   -7.3248203E-19
 -8.8000001E-04    2.4717883E-19
 -8.4499997E-04    8.4171728E-19
 -8.1000000E-04   -3.0422030E-19
 -7.7500002E-04   -8.9493849E-19
 -7.3999999E-04    1.6848861E-19
 -7.0500001E-04    9.8022112E-19
 -6.6999998E-04   -4.5297958E-23
 -6.3500000E-04   -1.1080705E-19
 -6.0000003E-04    7.3642132E-20
 -5.6499999E-04   -5.7564946E-19
 -5.3000002E-04    2.0880929E-19
 -4.9499999E-04    2.3534188E-18
 -4.6000001E-04    1.4517649E-18
 -4.2500001E-04   -5.2887240E-18
 -3.9000000E-04   -3.5674389E-18
 -3.5500000E-04    8.3830479E-18
 -3.1999999E-04    8.4664723E-18
 -2.8499999E-04   -9.6671730E-18
 -2.5000001E-04   -1.3980907E-17
 -2.1499999E-04    1.1527132E-17
 -1.8000000E-04    2.4159572E-17
 -1.4500000E-04   -6.3640480E-18
 -1.1000000E-04   -3.3786665E-17
 -7.5000004E-05   -1.4308063E-18
 -3.9999999E-05    4.5110311E-17
 -4.9999999E-06    1.5482940E-17
  2.9999999E-05   -5.4338090E-17
  6.5000000E-05   -3.9689062E-17
  9.9999997E-05    4.5413913E-17
  1.3499999E-04    6.4175101E-17
  1.7000000E-04   -1.5115404E-17
  2.0500000E-04   -8.4577391E-17
  2.3999999E-04   -4.5246462E-17
  2.7500000E-04    8.6248256E-17
  3.1000000E-04    1.4002087E-16
  3.4500001E-04   -4.2108949E-17
  3.8000001E-04   -2.5540182E-16
  4.1499999E-04   -4.4897428E-17
  4.4999999E-04    4.0211915E-16
  4.8500000E-04    2.2323604E-16
  5.2000000E-04   -4.9521760E-16
  5.5499998E-04   -4.7670210E-16
  5.9000001E-04    5.1476596E-16
  6.2499999E-04    8.3010457E-16
  6.6000002E-04   -3.9123822E-16
  6.9500000E-04   -1.2355628E-15
  7.3000003E-04    7.2041383E-17
  7.6500000E-04    1.6002329E-15
  7.9999998E-04    4.4696706E-16
  8.3500001E-04   -1.8541058E-15
  8.6999999E-04   -1.2245341E-15
  9.0500002E-04    1.8363079E-15
  9.4000000E-04    2.2199791E-15
  9.7499997E-04   -1.3347830E-15
  1.0100000E-03   -3.1790538E-15
  1.0450000E-03    3.6503925E-16
  1.0800000E-03    4.0428442E-15
  1.1150000E-03    1.2222478E-15
  1.1500000E-03   -4.4845414E-15
  1.1849999E-03   -3.2514035E-15
  1.2200000E-03    4.3953272E-15
  1.2550000E-03    5.6502951E-15
  1.2900000E-03   -3.5454277E-15
  1.3250000E-03   -8.3489149E-15
  1.3600000E-03    1.5441077E-15
  1.3950000E-03    1.0779735E-14
  1.4299999E-03    1.6214926E-15
  1.4650000E-03   -1.2639472E-14
  1.5000000E-03   -5.5066345E-15
  1.5350000E-03    1.4093915E-14
  1.5700000E-03    1.0295678E-14
  1.6050000E-03   -1.4990242E-14
  1.6400000E-03   -1.6549196E-14
  1.6749999E-03    1.4083999E-14
  1.7100000E-03    2.3910839E-14
  1.7450000E-03   -1.0063472E-14
  1.7800000E-03   -3.1345816E-14
  1.8150000E-03    2.5762272E-15
  1.8500000E-03    3.8354726E-14
  1.8850000E-03    8.6719259E-15
  1.9200000E-03   -4.4366732E-14
  1.9550000E-03   -2.5482420E-14
  1.9900000E-03    4.5721510E-14
  2.0250001E-03    4.7989959E-14
  2.0600001E-03   -3.5742375E-14
  2.0949999E-03   -6.9935275E-14
  2.1299999E-03    1.2555492E-14
  2.1650000E-03    8.4070066E-14
  2.2000000E-03    2.0357714E-14
  2.2350000E-03   -8.7362423E-14
  2.2700001E-03   -6.1187919E-14
  2.3050001E-03    7.5306860E-14
  2.3399999E-03    1.0883086E-13
  2.3749999E-03   -3.5480618E-14
  2.4100000E-03   -1.4853170E-13
  2.4450000E-03   -3.6880607E-14
  2.4800000E-03    1.5702117E-13
  2.5150001E-03    1.2798348E-13
  2.5500001E-03   -1.1956640E-13
  2.5849999E-03   -2.1571116E-13
  2.6199999E-03    3.3506855E-14
  2.6550000E-03    2.8048535E-13
  2.6900000E-03    1.0335488E-13
  2.7250000E-03   -2.9165998E-13
  2.7600001E-03   -2.7387700E-13
  2.7950001E-03    2.1932112E-13
  2.8299999E-03    4.2929058E-13
  2.8649999E-03   -6.8940852E-14
  2.9000000E-03   -5.3070471E-13
  2.9350000E-03   -1.3947131E-13
  2.9700000E-03    5.6233436E-13
  3.0050001E-03    4.1378920E-13
  3.0400001E-03   -4.6647761E-13
  3.0749999E-03   -7.2501786E-13
  3.1099999E-03    1.5591604E-13
  3.1450000E-03    9.3042598E-13
  3.1800000E-03    3.5373614E-13
  3.2150000E-03   -8.6746972E-13
  3.2500001E-03   -9.1419244E-13
  3.2850001E-03    5.0693998E-13
  3.3199999E-03    1.4140148E-12
  3.3549999E-03    1.2777297E-13
  3.3900000E-03   -1.8179442E-12
  3.4250000E-03   -1.1205538E-12
  3.4600000E-03    1.9464866E-12
  3.4950001E-03    2.5221635E-12
  3.5300001E-03   -1.3824397E-12
  3.5649999E-03   -4.0085673E-12
  3.5999999E-03   -1.7620130E-13
  3.6350000E-03    4.8697331E-12
  3.6700000E-03    2.4540155E-12
  3.7050000E-03   -4.5280476E-12
  3.7400001E-03   -4.6612787E-12
  3.7750001E-03    3.0560840E-12
  3.8099999E-03    6.1870634E-12
  3.8449999E-03   -9.1214829E-13
  3.8800000E-03   -6.9883986E-12
  3.9149998E-03   -1.8131688E-12
  3.9499998E-03    6.9343893E-12
  3.9849998E-03    5.2660866E-12
  4.0199999E-03   -5.1761239E-12
  4.0549999E-03   -8.6910279E-12
  4.0899999E-03    1.0777777E-12
  4.1250000E-03    1.0387542E-11
  4.1600000E-03    4.5263090E-12
  4.1950000E-03   -9.3784503E-12
  4.2300001E-03   -1.0074643E-11
  4.2650001E-03    6.1174759E-12
  4.3000001E-03    1.4822903E-11
  4.3350002E-03   -1.0737421E-12
  4.3700002E-03   -1.8283416E-11
  4.4049998E-03   -5.7351246E-12
  4.4399998E-03    1.9060746E-11
  4.4749998E-03    1.3256444E-11
  4.5099999E-03   -1.6045706E-11
  4.5449999E-03   -1.9342966E-11
  4.5799999E-03    9.8645926E-12
  4.6150000E-03    2.2467478E-11
  4.6500000E-03   -1.9732406E-12
  4.6850001E-03   -2.1749692E-11
  4.7200001E-03   -5.7533448E-12
  4.7550001E-03    1.6655585E-11
  4.7900002E-03    1.0380771E-11
  4.8250002E-03   -8.7575667E-12
  4.8600002E-03   -1.0004182E-11
  4.8949998E-03    1.4677079E-12
  4.9299998E-03    6.4182201E-12
  4.9649999E-03    4.5561228E-12
  4.9999999E-03   -9.6996727E-13
  5.0349999E-03   -1.0165455E-11
  5.0700000E-03   -8.3711970E-12
  5.1050000E-03    1.1200223E-11
  5.1400000E-03    1.9385368E-11
  5.1750001E-03   -2.9817912E-12
  5.2100001E-03   -2.2544968E-11
  5.2450001E-03   -8.3753377E-12
  5.2800002E-03    1.5019787E-11
  5.3150002E-03    1.4064200E-11
  5.3500002E-03   -3.5024574E-12
  5.3849998E-03   -1.4657763E-11
  5.4199998E-03   -1.0961080E-11
  5.4549999E-03    8.3548394E-12
  5.4899999E-03    2.9220393E-11
  5.5249999E-03    1.6671267E-11
  5.5600000E-03   -3.2937826E-11
  5.5950000E-03   -5.2729113E-11
  5.6300000E-03    6.8392609E-12
  5.6650001E-03    6.9612219E-11
  5.7000001E-03    2.8225415E-11
  5.7350001E-03   -6.1750279E-11
  5.7700002E-03   -4.7055963E-11
  5.8050002E-03    5.5609007E-11
  5.8400002E-03    6.7901865E-11
  5.8749998E-03   -4.3284140E-11
  5.9099998E-03   -9.9759173E-11
  5.9449999E-03   -7.1138538E-12
  5.9799999E-03    9.9470328E-11
  6.0149999E-03    7.3080104E-11
  6.0500000E-03   -4.1283591E-11
  6.0850000E-03   -8.9907790E-11
  6.1200000E-03   -1.8100558E-11
  6.1550001E-03    6.4478894E-11
  6.1900001E-03    3.8238999E-11
  6.2250001E-03   -4.9896681E-11
  6.2600002E-03   -5.5785331E-11
  6.2950002E-03    3.7880466E-11
  6.3299998E-03    9.4506319E-11
  6.3649998E-03    2.4168577E-11
  6.3999998E-03   -8.9206358E-11
  6.4349999E-03   -9.3385119E-11
  6.4699999E-03    2.2019610E-11
  6.5049999E-03    9.4513689E-11
  6.5400000E-03    3.1100521E-11
  6.5750000E-03   -5.0697928E-11
  6.6100000E-03   -3.3124441E-11
  6.6450001E-03    3.3290849E-11
  6.6800001E-03    5.2436479E-11
  6.7150001E-03   -3.4954017E-12
  6.7500002E-03   -8.3704439E-11
  6.7850002E-03   -7.0782109E-11
  6.8199998E-03    5.5775225E-11
  6.8549998E-03    1.1872472E-10
  6.8899998E-03    1.9348387E-11
  6.9249999E-03   -7.5811780E-11
  6.9599999E-03   -3.0258639E-11
  6.9949999E-03    4.3202452E-11
  7.0300000E-03    1.1625956E-11
  7.0650000E-03   -6.2405456E-11
  7.1000000E-03   -4.6444341E-11
  7.1350001E-03    4.9937495E-11
  7.1700001E-03    9.3544991E-11
  7.2050001E-03    3.1072048E-11
  7.2400002E-03   -3.9373463E-11
  7.2750002E-03   -3.4714485E-11
  7.3099998E-03   -1.3047593E-11
  7.3449998E-03   -4.5968621E-11
  7.3799998E-03   -5.3285883E-11
  7.4149999E-03    5.5915994E-11
  7.4499999E-03    1.5502813E-10
  7.4850000E-03    8.0208985E-11
  7.5200000E-03   -8.7095477E-11
  7.5550000E-03   -1.5758402E-10
  7.5900001E-03   -5.2385513E-11
  7.6250001E-03    1.2643614E-10
  7.6600001E-03    1.0524879E-10
  7.6950002E-03   -1.2731077E-10
  7.7300002E-03   -1.2111595E-10
  7.7650002E-03    1.8260445E-10
  7.7999998E-03    2.1313837E-10
  7.8349998E-03   -1.0165780E-10
  7.8699999E-03   -2.3027287E-10
  7.9049999E-03   -5.9188619E-11
  7.9399999E-03    1.1864768E-10
  7.9750000E-03    1.0387514E-10
  8.0100000E-03   -6.1317687E-11
  8.0450000E-03   -6.7498498E-12
  8.0800001E-03    2.2627814E-10
  8.1150001E-03   -2.4749964E-11
  8.1500001E-03   -4.4856241E-10
  8.1850002E-03   -1.0607867E-10
  8.2200002E-03    4.2144266E-10
  8.2550002E-03    2.4796448E-10
  8.2900003E-03   -5.6881815E-11
  8.3250003E-03   -1.3555981E-10
  8.3600003E-03   -2.2622111E-10
  8.3950004E-03   -2.8356912E-11
  8.4300004E-03    1.9491532E-10
  8.4650004E-03   -6.1139940E-11
  8.5000005E-03   -1.0283046E-10
  8.5349996E-03    1.3332205E-10
  8.5699996E-03   -2.3836799E-11
  8.6049996E-03    8.9940000E-11
  8.6399997E-03    3.8473574E-10
  8.6749997E-03   -2.8222641E-10
  8.7099997E-03   -6.6164679E-10
  8.7449998E-03    2.0711856E-10
  8.7799998E-03    3.9747150E-10
  8.8149998E-03   -1.7129420E-10
  8.8499999E-03    3.0551010E-11
  8.8849999E-03    1.7798153E-10
  8.9199999E-03    2.5557546E-11
  8.9550000E-03    2.5877031E-10
  8.9900000E-03   -3.0700606E-10
  9.0250000E-03   -8.9571733E-10
  9.0600001E-03    2.9884062E-10
  9.0950001E-03    7.9190943E-10
  9.1300001E-03   -3.1924721E-10
  9.1650002E-03   -3.9314951E-11
  9.2000002E-03    5.0001447E-10
  9.2350002E-03   -4.6512866E-10
  9.2700003E-03   -2.8635652E-10
  9.3050003E-03    3.9995968E-10
  9.3400003E-03   -5.0965127E-10
  9.3750004E-03   -3.6277503E-10
  9.4100004E-03    6.7876976E-10
  9.4450004E-03   -3.3423302E-11
  9.4799995E-03   -6.1645855E-11
  9.5149996E-03    8.3251056E-10
  9.5499996E-03   -3.8916265E-10
  9.5849996E-03   -8.2267748E-10
  9.6199997E-03    7.6341128E-10
  9.6549997E-03    9.3558147E-11
  9.6899997E-03   -8.9494673E-10
  9.7249998E-03    3.8273956E-10
  9.7599998E-03   -1.6512276E-10
  9.7949998E-03   -1.1065705E-09
  9.8299999E-03    9.7942432E-10
  9.8649999E-03    1.2017098E-09
  9.8999999E-03   -8.2003260E-10
  9.9350000E-03    1.2568692E-10
  9.9700000E-03    7.1781553E-10
  1.0005000E-02   -1.0896428E-09
  1.0040000E-02   -2.2028879E-10
  1.0075000E-02    7.8926277E-10
  1.0110000E-02   -1.3588987E-09
  1.0145000E-02   -7.1175521E-10
  1.0180000E-02    2.0961755E-09
  1.0215000E-02    9.6494879E-10
  1.0250000E-02   -8.4780233E-10
  1.0285000E-02   -4.2335374E-10
  1.0320000E-02   -1.4149124E-09
  1.0355000E-02   -8.6745539E-10
  1.0390000E-02    2.2201283E-09
  1.0425000E-02    1.5220685E-09
  1.0460000E-02   -1.2654213E-09
  1.0495000E-02   -5.5577437E-10
  1.0530000E-02   -4.6639619E-11
  1.0565000E-02   -7.6766693E-10
  1.0600000E-02    9.9088515E-10
  1.0635000E-02    1.0869280E-09
  1.0670000E-02   -1.4252757E-09
  1.0705000E-02   -5.7774696E-10
  1.0740000E-02    1.2153119E-09
  1.0775000E-02   -2.3206116E-10
  1.0810000E-02    4.2106635E-10
  1.0845000E-02    6.9787337E-10
  1.0880000E-02   -1.5910092E-09
  1.0915000E-02    7.1711731E-10
  1.0950000E-02    1.7548399E-09
  1.0985000E-02   -2.3860467E-09
  1.1020000E-02   -2.0714797E-09
  1.1055000E-02    1.5004848E-09
  1.1090000E-02   -4.8839349E-10
  1.1125000E-02   -3.3716688E-10
  1.1160000E-02    2.6801561E-09
  1.1195000E-02    2.9044350E-10
  1.1230000E-02   -1.6817417E-09
  1.1265000E-02    2.7822382E-09
  1.1300000E-02    1.1442627E-09
  1.1335000E-02   -4.1487938E-09
  1.1370000E-02   -8.5729555E-11
  1.1405000E-02    1.3466414E-09
  1.1440000E-02   -2.4295230E-09
  1.1475000E-02   -3.8953191E-10
  1.1510000E-02    2.8755036E-09
  1.1545000E-02    4.9698490E-10
  1.1580000E-02   -5.0636628E-10
  1.1615000E-02    5.3146675E-11
  1.1650000E-02   -2.7172736E-10
  1.1685000E-02    6.0066188E-11
  1.1720000E-02   -6.2656275E-10
  1.1755000E-02   -1.2577387E-09
  1.1790000E-02    1.4566398E-09
  1.1825000E-02    7.8538037E-11
  1.1860000E-02   -2.0593549E-09
  1.1895000E-02    1.5084298E-09
  1.1930000E-02    9.1892116E-10
  1.1965000E-02   -1.7585465E-09
  1.2000000E-02    3.7972794E-10
  1.2035000E-02    6.5857703E-10
  1.2070000E-02   -1.7673041E-09
  1.2105000E-02    4.2059714E-10
  1.2140000E-02    2.6913574E-09
  1.2175000E-02    8.0112073E-10
  1.2210000E-02   -4.3319792E-10
  1.2245000E-02   -1.5434506E-09
  1.2280000E-02   -2.8678526E-09
  1.2315000E-02   -4.0039430E-10
  1.2350000E-02    1.1154750E-09
  1.2385000E-02    1.0237106E-09
  1.2420000E-02    2.0698578E-09
  1.2455000E-02   -1.0459763E-09
  1.2490000E-02   -5.5037592E-09
  1.2525000E-02   -2.3156224E-09
  1.2560000E-02    2.5999827E-09
  1.2595000E-02    2.4857509E-09
  1.2630000E-02    2.6682905E-09
  1.2665000E-02    3.7112129E-09
  1.2700000E-02    7.8671802E-10
  1.2735000E-02   -4.7480428E-09
  1.2770000E-02   -6.1149272E-09
  1.2805000E-02   -1.9647541E-09
  1.2840000E-02    2.4257538E-09
  1.2875000E-02    3.0178446E-09
  1.2910000E-02    2.0398785E-09
  1.2945000E-02    2.2526507E-09
  1.2980000E-02    3.6568298E-10
  1.3015000E-02   -8.0807427E-10
  1.3050000E-02   -4.8521920E-10
  1.3085000E-02   -1.2808663E-09
  1.3120000E-02   -2.7589457E-09
  1.3155000E-02   -3.4360770E-09
  1.3190000E-02    2.0669308E-09
  1.3225000E-02    4.5039172E-09
  1.3260000E-02   -3.6237275E-09
  1.3295000E-02   -4.2286112E-09
  1.3330000E-02    2.8428375E-09
  1.3365000E-02   -5.6869770E-10
  1.3400000E-02   -2.6823512E-09
  1.3435000E-02    5.9291265E-09
  1.3470000E-02    6.3113963E-09
  1.3505000E-02   -7.5204626E-10
  1.3540000E-02   -5.2474397E-10
  1.3575000E-02   -3.2943781E-09
  1.3610000E-02   -8.8572616E-09
  1.3645000E-02    3.6257075E-10
  1.3680000E-02    6.5404047E-09
  1.3715000E-02   -2.6960401E-09
  1.3750000E-02   -2.5274758E-09
  1.3785000E-02    6.4941386E-09
  1.3820000E-02    1.8516437E-09
  1.3855000E-02   -3.3008134E-09
  1.3890000E-02    1.5654937E-09
  1.3925000E-02    1.2675810E-09
  1.3960000E-02   -2.1063373E-09
  1.3995000E-02   -4.6131030E-10
  1.4030000E-02    8.9223651E-10
  1.4065000E-02   -9.0165858E-10
  1.4100000E-02   -9.5123742E-10
  1.4135000E-02    2.9920406E-09
  1.4170000E-02    3.8223122E-09
  1.4205000E-02   -4.3488928E-09
  1.4240000E-02   -5.2749494E-09
  1.4275000E-02    4.4135171E-09
  1.4310000E-02    2.7418041E-09
  1.4345000E-02   -5.2425757E-09
  1.4380000E-02    1.1272195E-09
  1.4415000E-02    4.3827364E-09
  1.4450000E-02   -4.2857380E-09
  1.4485000E-02   -1.6179171E-11
  1.4520000E-02    7.8607973E-09
  1.4555000E-02   -1.7265629E-09
  1.4590000E-02   -3.2842027E-09
  1.4625000E-02    7.9362374E-09
  1.4660000E-02    2.3037587E-09
  1.4695000E-02   -7.6257773E-09
  1.4730000E-02    6.1604677E-10
  1.4765000E-02    4.9078079E-09
  1.4800000E-02   -1.2684147E-09
  1.4835000E-02    8.2153606E-10
  1.4870000E-02    4.9189586E-09
  1.4905000E-02    9.2197500E-10
  1.4940000E-02   -3.2883332E-09
  1.4975000E-02   -3.1173848E-09
  1.5010000E-02   -7.0076894E-10
  1.5045000E-02    1.0253194E-09
  1.5080000E-02    7.8614909E-10
  1.5115000E-02    2.4473268E-09
  1.5150000E-02    3.0329510E-09
  1.5185000E-02   -1.5439214E-09
  1.5220000E-02   -7.4359513E-10
  1.5255000E-02    4.9576281E-09
  1.5290000E-02    1.7574180E-09
  1.5325000E-02   -2.7260227E-09
  1.5360000E-02    2.9714511E-10
  1.5395000E-02   -1.2195612E-09
  1.5430000E-02   -3.9934100E-09
  1.5465000E-02    3.5659899E-09
  1.5500000E-02    7.2358017E-09
  1.5535000E-02    5.7474747E-10
  1.5570000E-02   -6.9641098E-11
  1.5605000E-02    1.8074937E-09
  1.5640000E-02   -5.1531255E-09
  1.5675001E-02   -7.6536404E-09
  1.5710000E-02    1.4964243E-11
  1.5745001E-02    2.2878479E-09
  1.5780000E-02    4.6892773E-10
  1.5814999E-02    5.1997122E-09
  1.5850000E-02    6.2753487E-09
  1.5884999E-02   -1.5914182E-09
  1.5920000E-02   -3.8002321E-09
  1.5954999E-02    9.9574047E-12
  1.5990000E-02   -1.1490154E-09
  1.6024999E-02   -1.7042041E-09
  1.6060000E-02    1.4299798E-09
  1.6094999E-02    2.9769992E-10
  1.6130000E-02    2.9943054E-10
  1.6164999E-02    4.0059041E-09
  1.6200000E-02   -1.3582476E-09
  1.6235000E-02   -8.2278824E-09
  1.6270000E-02   -2.7057939E-10
  1.6305000E-02    6.8118053E-09
  1.6340001E-02   -8.2887680E-10
  1.6375000E-02   -4.7325015E-09
  1.6410001E-02    2.9244169E-09
  1.6445000E-02    5.0712345E-09
  1.6480001E-02   -2.2336388E-09
  1.6515000E-02   -5.7311409E-09
  1.6550001E-02   -2.1447162E-09
  1.6585000E-02   -4.5135390E-10
  1.6620001E-02   -1.6876568E-09
  1.6655000E-02    1.8109955E-09
  1.6690001E-02    5.5649241E-09
  1.6725000E-02    2.4571428E-10
  1.6759999E-02   -4.6917417E-09
  1.6795000E-02   -7.3966872E-10
  1.6829999E-02    4.4857187E-10
  1.6865000E-02   -3.7051227E-09
  1.6899999E-02   -1.3201192E-09
  1.6935000E-02    3.3552376E-09
  1.6969999E-02    4.7113419E-10
  1.7005000E-02   -2.1419138E-09
  1.7039999E-02    2.7550359E-10
  1.7075000E-02   -8.2366680E-10
  1.7109999E-02   -3.2523924E-09
  1.7145000E-02    5.7462096E-10
  1.7180000E-02    1.5191366E-09
  1.7215000E-02   -4.2333852E-09
  1.7250000E-02   -1.7539120E-09
  1.7285001E-02    4.9388302E-09
  1.7320000E-02   -1.6509752E-09
  1.7355001E-02   -7.8625790E-09
  1.7390000E-02   -5.5307198E-10
  1.7425001E-02    1.1418262E-09
  1.7460000E-02   -2.2384374E-09
  1.7495001E-02    5.4143166E-09
  1.7530000E-02    5.8447123E-09
  1.7565001E-02   -6.0945662E-09
  1.7600000E-02   -3.3643583E-09
  1.7635001E-02    3.1511662E-09
  1.7670000E-02   -6.0451559E-09
  1.7704999E-02   -5.2059757E-09
  1.7740000E-02    7.3441071E-09
  1.7774999E-02    1.6921984E-09
  1.7810000E-02   -7.0432260E-09
  1.7844999E-02    1.3134579E-09
  1.7880000E-02    3.3507868E-09
  1.7914999E-02   -5.9360716E-09
  1.7950000E-02   -5.0073021E-09
  1.7984999E-02    1.8100613E-09
  1.8020000E-02    1.0945792E-09
  1.8054999E-02   -2.1906481E-09
  1.8090000E-02   -1.3478767E-09
  1.8124999E-02    1.2364305E-09
  1.8160000E-02   -4.1751541E-10
  1.8195000E-02   -2.9372307E-09
  1.8230001E-02    2.5265574E-09
  1.8265000E-02    6.6415207E-09
  1.8300001E-02    8.8573954E-11
  1.8335000E-02   -2.8159766E-09
  1.8370001E-02    5.1408622E-10
  1.8405000E-02   -2.9778766E-09
  1.8440001E-02   -4.6356297E-09
  1.8475000E-02    1.9153226E-09
  1.8510001E-02    1.8047608E-09
  1.8545000E-02   -2.7904234E-09
  1.8580001E-02   -6.8114164E-10
  1.8615000E-02   -1.0954571E-10
  1.8650001E-02   -3.4052152E-09
  1.8685000E-02   -1.2145188E-09
  1.8719999E-02    3.8754315E-09
  1.8755000E-02    5.1154645E-09
  1.8789999E-02    1.5212053E-09
  1.8825000E-02   -2.8472660E-09
  1.8859999E-02    1.9686221E-10
  1.8895000E-02    4.8331765E-09
  1.8929999E-02   -1.1104353E-09
  1.8965000E-02   -6.1421925E-09
  1.8999999E-02    1.2076235E-11
  1.9035000E-02    2.4666416E-09
  1.9069999E-02   -2.3480213E-09
  1.9105000E-02   -1.1519045E-09
  1.9140000E-02    3.5352279E-09
  1.9175000E-02    2.1975486E-09
  1.9210000E-02   -2.2581585E-09
  1.9245001E-02   -2.2708850E-09
  1.9280000E-02    2.8460523E-09
  1.9315001E-02    3.6507251E-09
  1.9350000E-02   -2.2189954E-09
  1.9385001E-02   -2.2699955E-09
  1.9420000E-02    1.5912167E-09
  1.9455001E-02   -2.2449529E-09
  1.9490000E-02   -3.4209096E-09
  1.9525001E-02    3.6093781E-09
  1.9560000E-02    3.7259311E-09
  1.9595001E-02   -5.5688038E-10
  1.9630000E-02    6.1937644E-10
  1.9664999E-02   -1.2764606E-09
  1.9700000E-02   -4.6645607E-09
  1.9734999E-02   -4.9726412E-10
  1.9770000E-02    2.7973495E-09
  1.9804999E-02    2.5753106E-09
  1.9840000E-02    4.2985344E-09
  1.9874999E-02    1.5990084E-09
  1.9910000E-02   -3.2293384E-09
  1.9944999E-02   -9.4984243E-10
  1.9980000E-02    8.8538926E-10
  2.0014999E-02   -4.4936088E-10
  2.0050000E-02    2.5210809E-09
  2.0085000E-02    3.6708054E-09
  2.0120000E-02   -2.0804977E-10
  2.0155000E-02   -1.0505669E-09
  2.0190001E-02   -1.2273452E-09
  2.0225000E-02   -2.6198379E-09
  2.0260001E-02    8.2931223E-10
  2.0295000E-02    3.8034882E-09
  2.0330001E-02    4.6214019E-10
  2.0365000E-02   -2.2124793E-09
  2.0400001E-02   -1.2624972E-09
  2.0435000E-02    1.8790403E-11
  2.0470001E-02    1.1662766E-09
  2.0505000E-02    1.8111356E-09
  2.0540001E-02    1.6274359E-09
  2.0575000E-02   -6.2682672E-11
  2.0609999E-02   -2.9477354E-09
  2.0645000E-02   -2.0631854E-09
  2.0679999E-02    1.7368742E-09
  2.0715000E-02    2.7073970E-09
  2.0749999E-02    3.7656718E-09
  2.0785000E-02    4.1399075E-09
  2.0819999E-02   -2.0116373E-09
  2.0855000E-02   -5.0257691E-09
  2.0889999E-02    7.3947481E-10
  2.0925000E-02    1.3628600E-09
  2.0959999E-02   -2.9747524E-09
  2.0995000E-02    3.6106579E-10
  2.1029999E-02    4.2325818E-09
  2.1065000E-02   -2.6241948E-10
  2.1100000E-02   -3.7695522E-09
  2.1135001E-02   -6.5782590E-10
  2.1170000E-02    1.6060220E-09
  2.1205001E-02   -1.4349939E-09
  2.1240000E-02   -2.8678016E-09
  2.1275001E-02    2.2119375E-09
  2.1310000E-02    3.5618948E-09
  2.1345001E-02   -2.3824425E-09
  2.1380000E-02   -1.1356989E-09
  2.1415001E-02    4.6871063E-09
  2.1450000E-02   -7.5150629E-11
  2.1485001E-02   -4.4548059E-09
  2.1520000E-02    1.0449125E-09
  2.1555001E-02    7.2829315E-10
  2.1590000E-02   -5.1010312E-09
  2.1624999E-02   -2.5629607E-09
  2.1660000E-02    1.3313705E-09
  2.1694999E-02    2.2872072E-10
  2.1730000E-02    7.5824280E-10
  2.1764999E-02    1.1221759E-09
  2.1800000E-02   -9.2695251E-10
  2.1834999E-02   -1.2771357E-09
  2.1870000E-02   -1.2549319E-09
  2.1904999E-02   -1.4897419E-09
  2.1940000E-02   -9.5577501E-10
  2.1974999E-02   -2.2734910E-09
  2.2010000E-02   -2.6304798E-09
  2.2045000E-02   -5.0534882E-11
  2.2080000E-02    3.7502884E-10
  2.2115000E-02   -2.0032188E-11
  2.2150001E-02    9.2773089E-10
  2.2185000E-02    4.8406151E-10
  2.2220001E-02    8.5067559E-10
  2.2255000E-02   -7.6910600E-10
  2.2290001E-02   -6.3041279E-09
  2.2325000E-02   -2.9277771E-09
  2.2360001E-02    3.2660139E-09
  2.2395000E-02   -4.9452966E-09
  2.2430001E-02   -7.1326012E-09
  2.2465000E-02    6.6692403E-09
  2.2500001E-02    4.0671928E-09
  2.2535000E-02   -9.3067216E-09
  2.2569999E-02   -1.4152592E-09
  2.2605000E-02    7.2577455E-09
  2.2639999E-02   -2.2026803E-09
  2.2675000E-02   -4.5604858E-09
  2.2709999E-02    2.4604396E-09
  2.2745000E-02    1.1334376E-09
  2.2779999E-02   -1.2265963E-09
  2.2815000E-02    5.5332711E-10
  2.2849999E-02   -4.1713150E-10
  2.2885000E-02   -2.3143631E-09
  2.2919999E-02   -2.8577329E-09
  2.2955000E-02   -9.7494057E-10
  2.2990000E-02    1.7980715E-09
  2.3025000E-02   -1.9775013E-09
  2.3060000E-02   -3.9651034E-09
  2.3095001E-02    3.7086971E-09
  2.3130000E-02    3.0216496E-09
  2.3165001E-02   -5.5981033E-09
  2.3200000E-02   -1.0618887E-09
  2.3235001E-02    4.5859596E-09
  2.3270000E-02   -1.4727416E-09
  2.3305001E-02   -7.1835404E-10
  2.3340000E-02    4.5675095E-09
  2.3375001E-02   -1.7661071E-09
  2.3410000E-02   -5.1270050E-09
  2.3445001E-02    2.6464384E-09
  2.3480000E-02    3.2600331E-09
  2.3514999E-02   -3.6179062E-09
  2.3550000E-02   -2.0458921E-09
  2.3584999E-02    3.5645074E-09
  2.3620000E-02   -1.3981664E-10
  2.3654999E-02   -4.9806532E-09
  2.3690000E-02    1.3680290E-09
  2.3724999E-02    4.8467856E-09
  2.3760000E-02   -3.4555023E-09
  2.3794999E-02   -2.8064291E-09
  2.3830000E-02    5.9897336E-09
  2.3864999E-02    1.0883284E-09
  2.3900000E-02   -2.9849834E-09
  2.3934999E-02    5.8994076E-09
  2.3970000E-02    3.0611793E-09
  2.4005000E-02   -7.0123414E-09
  2.4040001E-02   -7.2670020E-10
  2.4075000E-02    4.7825948E-09
  2.4110001E-02   -1.1110510E-09
  2.4145000E-02    3.9518580E-10
  2.4180001E-02    4.7284665E-09
  2.4215000E-02    1.2604733E-10
  2.4250001E-02   -3.0977418E-09
  2.4285000E-02   -6.1353961E-10
  2.4320001E-02    2.4597020E-09
  2.4355000E-02    2.0276720E-09
  2.4390001E-02   -3.3118013E-09
  2.4425000E-02   -2.3940325E-09
  2.4460001E-02    3.9049035E-09
  2.4495000E-02   -1.4772101E-09
  2.4529999E-02   -4.9227498E-09
  2.4565000E-02    7.5161486E-09
  2.4599999E-02    8.3582608E-09
  2.4635000E-02   -4.3459769E-09
  2.4669999E-02   -4.0569612E-10
  2.4705000E-02    7.2733819E-09
  2.4739999E-02   -1.7673452E-09
  2.4775000E-02   -5.6759073E-09
  2.4809999E-02    2.7218703E-09
  2.4845000E-02    3.0040717E-09
  2.4879999E-02   -2.8262170E-09
  2.4915000E-02   -3.7995609E-10
  2.4950000E-02    5.5024625E-09
  2.4985000E-02    3.3411118E-09
  2.5020000E-02   -2.5819502E-09
  2.5055001E-02   -1.2241381E-09
  2.5090000E-02    1.2926265E-09
  2.5125001E-02   -2.5957354E-09
  2.5160000E-02   -1.4814353E-09
  2.5195001E-02    4.1485628E-09
  2.5230000E-02    1.9678346E-09
  2.5265001E-02    1.5983749E-09
  2.5300000E-02    4.9885993E-09
  2.5335001E-02   -2.1076640E-09
  2.5370000E-02   -5.0248095E-09
  2.5405001E-02    4.9112190E-09
  2.5440000E-02    2.2978239E-09
  2.5474999E-02   -5.9376943E-09
  2.5510000E-02    3.3583480E-09
  2.5544999E-02    7.2369875E-09
  2.5580000E-02   -4.1405595E-09
  2.5614999E-02   -2.2154356E-09
  2.5650000E-02    6.3648180E-09
  2.5684999E-02   -7.8207307E-10
  2.5720000E-02   -6.2222063E-09
  2.5754999E-02    2.1457480E-09
  2.5790000E-02    5.9845400E-09
  2.5824999E-02    2.3162819E-10
  2.5860000E-02   -2.1687914E-09
  2.5895000E-02    1.2990290E-09
  2.5930000E-02    2.3473605E-09
  2.5965000E-02   -7.2799261E-10
  2.6000001E-02   -1.3515802E-09
  2.6035000E-02    1.4398346E-10
  2.6070001E-02   -1.7359124E-10
  2.6105000E-02    2.0310635E-09
  2.6140001E-02    4.3139767E-09
  2.6175000E-02   -8.9574059E-10
  2.6210001E-02   -4.2011021E-09
  2.6245000E-02   -1.1825636E-12
  2.6280001E-02   -1.4893509E-10
  2.6315000E-02   -2.6663811E-09
  2.6350001E-02    6.2115901E-10
  2.6385000E-02    4.5470744E-10
  2.6419999E-02   -3.1159419E-09
  2.6455000E-02    1.0835745E-09
  2.6489999E-02    4.5045825E-09
  2.6525000E-02   -1.2256017E-09
  2.6559999E-02   -3.5791732E-09
  2.6595000E-02    1.5261542E-09
  2.6629999E-02    2.4898983E-09
  2.6665000E-02   -1.6008761E-09
  2.6699999E-02   -1.9822763E-09
  2.6735000E-02   -3.7012743E-10
  2.6769999E-02   -3.1265541E-09
  2.6805000E-02   -3.4026717E-09
  2.6839999E-02    4.1778998E-09
  2.6875000E-02    6.5858461E-09
  2.6910000E-02    4.8584103E-10
  2.6945001E-02   -1.1627643E-10
  2.6980000E-02    2.4930588E-10