 -4.8000002E-03    1.0000000E-24
 -4.7650002E-03    1.0000000E-24
 -4.7300002E-03    1.0000002E-24
 -4.6950001E-03    1.0000001E-24
 -4.6600001E-03    1.0000001E-24
 -4.6250001E-03    1.0000000E-24
 -4.5900000E-03    1.0000000E-24
 -4.5550000E-03    1.0000001E-24
 -4.5200000E-03    1.0000003E-24
 -4.4849999E-03    1.0000002E-24
 -4.4499999E-03    9.9999992E-25
 -4.4149999E-03    9.9999982E-25
 -4.3799998E-03    9.9999992E-25
 -4.3449998E-03    1.0000004E-24
 -4.3100002E-03    1.0000005E-24
 -4.2750002E-03    1.0000001E-24
 -4.2400002E-03    9.9999972E-25
 -4.2050001E-03    9.9999982E-25
 -4.1700001E-03    1.0000001E-24
 -4.1350001E-03    1.0000001E-24
 -4.1000000E-03    9.9999992E-25
 -4.0650000E-03    1.0000002E-24
 -4.0300000E-03    1.0000005E-24
 -3.9949999E-03    1.0000002E-24
 -3.9599999E-03    9.9999972E-25
 -3.9249999E-03    9.9999972E-25
 -3.8900001E-03    1.0000001E-24
 -3.8550000E-03    1.0000003E-24
 -3.8200000E-03    9.9999992E-25
 -3.7849999E-03    9.9999982E-25
 -3.7499999E-03    1.0000000E-24
 -3.7150001E-03    1.0000005E-24
 -3.6800001E-03    1.0000006E-24
 -3.6450000E-03    1.0000002E-24
 -3.6100000E-03    9.9999982E-25
 -3.5750000E-03    9.9999972E-25
 -3.5399999E-03    1.0000000E-24
 -3.5049999E-03    1.0000002E-24
 -3.4700001E-03    1.0000003E-24
 -3.4350001E-03    1.0000004E-24
 -3.4000000E-03    9.9999992E-25
 -3.3650000E-03    9.9999943E-25
 -3.3300000E-03    9.9999972E-25
 -3.2949999E-03    1.0000003E-24
 -3.2599999E-03    1.0000005E-24
 -3.2250001E-03    1.0000002E-24
 -3.1900001E-03    9.9999982E-25
 -3.1550000E-03    9.9999982E-25
 -3.1200000E-03    1.0000001E-24
 -3.0850000E-03    1.0000003E-24
 -3.0499999E-03    9.9999992E-25
 -3.0149999E-03    9.9999972E-25
 -2.9800001E-03    1.0000000E-24
 -2.9450001E-03    1.0000002E-24
 -2.9100000E-03    1.0000001E-24
 -2.8750000E-03    1.0000003E-24
 -2.8400000E-03    1.0000005E-24
 -2.8049999E-03    1.0000001E-24
 -2.7699999E-03    9.9999963E-25
 -2.7350001E-03    9.9999963E-25
 -2.7000001E-03    1.0000004E-24
 -2.6650000E-03    1.0000009E-24
 -2.6300000E-03    1.0000005E-24
 -2.5950000E-03    9.9999953E-25
 -2.5599999E-03    9.9999953E-25
 -2.5249999E-03    1.0000004E-24
 -2.4900001E-03    1.0000007E-24
 -2.4550001E-03    1.0000002E-24
 -2.4200000E-03    9.9999953E-25
 -2.3850000E-03    9.9999943E-25
 -2.3500000E-03    1.0000000E-24
 -2.3149999E-03    1.0000008E-24
 -2.2799999E-03    1.0000008E-24
 -2.2450001E-03    1.0000002E-24
 -2.2100001E-03    9.9999982E-25
 -2.1750000E-03    9.9999992E-25
 -2.1400000E-03    1.0000001E-24
 -2.1050000E-03    1.0000001E-24
 -2.0699999E-03    9.9999933E-25
 -2.0349999E-03    9.9999903E-25
 -2.0000001E-03    1.0000001E-24
 -1.9650001E-03    1.0000013E-24
 -1.9300000E-03    1.0000012E-24
 -1.8950000E-03    1.0000005E-24
 -1.8600000E-03    1.0000000E-24
 -1.8250000E-03    9.9999972E-25
 -1.7900000E-03    9.9999943E-25
 -1.7550000E-03    9.9999982E-25
 -1.7199999E-03    1.0000005E-24
 -1.6850000E-03    1.0000006E-24
 -1.6500000E-03    1.0000000E-24
 -1.6150000E-03    9.9999933E-25
 -1.5800000E-03    9.9999963E-25
 -1.5450000E-03    1.0000002E-24
 -1.5100000E-03    1.0000002E-24
 -1.4750001E-03    1.0000002E-24
 -1.4400000E-03    1.0000006E-24
 -1.4050000E-03    1.0000004E-24
 -1.3700000E-03    9.9999943E-25
 -1.3350000E-03    9.9999913E-25
 -1.3000000E-03    1.0000000E-24
 -1.2650000E-03    1.0000008E-24
 -1.2300001E-03    1.0000004E-24
 -1.1950000E-03    9.9999933E-25
 -1.1600000E-03    9.9999933E-25
 -1.1250000E-03    1.0000003E-24
 -1.0900000E-03    1.0000009E-24
 -1.0550000E-03    1.0000007E-24
 -1.0200000E-03    9.9999982E-25
 -9.8500005E-04    9.9999923E-25
 -9.5000002E-04    9.9999963E-25
 -9.1499998E-04    1.0000003E-24
 -8.8000001E-04    1.0000003E-24
 -8.4499997E-04    1.0000001E-24
 -8.1000000E-04    1.0000002E-24
 -7.7500002E-04    1.0000003E-24
 -7.3999999E-04    1.0000001E-24
 -7.0500001E-04    1.0000002E-24
 -6.6999998E-04    1.0000007E-24
 -6.3500000E-04    1.0000004E-24
 -6.0000003E-04    9.9999933E-25
 -5.6499999E-04    9.9999923E-25
 -5.3000002E-04    1.0000001E-24
 -4.9499999E-04    1.0000002E-24
 -4.6000001E-04    9.9999953E-25
 -4.2500001E-04    9.9999992E-25
 -3.9000000E-04    1.0000013E-24
 -3.5500000E-04    1.0000018E-24
 -3.1999999E-04    1.0000004E-24
 -2.8499999E-04    9.9999913E-25
 -2.5000001E-04    9.9999874E-25
 -2.1499999E-04    9.9999933E-25
 -1.8000000E-04    1.0000001E-24
 -1.4500000E-04    1.0000008E-24
 -1.1000000E-04    1.0000010E-24
 -7.5000004E-05    1.0000010E-24
 -3.9999999E-05    1.0000003E-24
 -4.9999999E-06    9.9999884E-25
  2.9999999E-05    9.9999834E-25
  6.5000000E-05    9.9999963E-25
  9.9999997E-05    1.0000010E-24
  1.3499999E-04    1.0000011E-24
  1.7000000E-04    1.0000006E-24
  2.0500000E-04    1.0000001E-24
  2.3999999E-04    9.9999992E-25
  2.7500000E-04    1.0000000E-24
  3.1000000E-04    1.0000000E-24
  3.4500001E-04    1.0000006E-24
  3.8000001E-04    1.0000011E-24
  4.1499999E-04    9.9999992E-25
  4.4999999E-04    9.9999874E-25
  4.8500000E-04    9.9999913E-25
  5.2000000E-04    9.9999953E-25
  5.5499998E-04    9.9999972E-25
  5.9000001E-04    1.0000006E-24
  6.2499999E-04    1.0000006E-24
  6.6000002E-04    1.0000000E-24
  6.9500000E-04    1.0000006E-24
  7.3000003E-04    1.0000011E-24
  7.6500000E-04    1.0000001E-24
  7.9999998E-04    9.9999913E-25
  8.3500001E-04    9.9999953E-25
  8.6999999E-04    1.0000000E-24
  9.0500002E-04    1.0000002E-24
  9.4000000E-04    1.0000003E-24
  9.7499997E-04    1.0000005E-24
  1.0100000E-03    1.0000004E-24
  1.0450000E-03    9.9999953E-25
  1.0800000E-03    9.9999923E-25
  1.1150000E-03    9.9999982E-25
  1.1500000E-03    1.0000009E-24
  1.1849999E-03    1.0000013E-24
  1.2200000E-03    1.0000005E-24
  1.2550000E-03    9.9999933E-25
  1.2900000E-03    9.9999923E-25
  1.3250000E-03    1.0000003E-24
  1.3600000E-03    1.0000002E-24
  1.3950000E-03    9.9999953E-25
  1.4299999E-03    1.0000001E-24
  1.4650000E-03    1.0000015E-24
  1.5000000E-03    1.0000010E-24
  1.5350000E-03    9.9999893E-25
  1.5700000E-03    9.9999844E-25
  1.6050000E-03    1.0000003E-24
  1.6400000E-03    1.0000010E-24
  1.6749999E-03    9.9999982E-25
  1.7100000E-03    9.9999933E-25
  1.7450000E-03    1.0000005E-24
  1.7800000E-03    1.0000010E-24
  1.8150000E-03    1.0000007E-24
  1.8500000E-03    1.0000007E-24
  1.8850000E-03    1.0000002E-24
  1.9200000E-03    9.9999913E-25
  1.9550000E-03    9.9999893E-25
  1.9900000E-03    1.0000004E-24
  2.0250001E-03    1.0000015E-24
  2.0600001E-03    1.0000006E-24
  2.0949999E-03    9.9999933E-25
  2.1299999E-03    9.9999923E-25
  2.1650000E-03    9.9999963E-25
  2.2000000E-03    1.0000006E-24
  2.2350000E-03    1.0000014E-24
  2.2700001E-03    1.0000007E-24
  2.3050001E-03    9.9999913E-25
  2.3399999E-03    9.9999884E-25
  2.3749999E-03    9.9999992E-25
  2.4100000E-03    1.0000009E-24
  2.4450000E-03    1.0000010E-24
  2.4800000E-03    1.0000002E-24
  2.5150001E-03    9.9999943E-25
  2.5500001E-03    9.9999943E-25
  2.5849999E-03    1.0000001E-24
  2.6199999E-03    1.0000004E-24
  2.6550000E-03    1.0000001E-24
  2.6900000E-03    1.0000002E-24
  2.7250000E-03    1.0000000E-24
  2.7600001E-03    9.9999923E-25
  2.7950001E-03    9.9999933E-25
  2.8299999E-03    1.0000009E-24
  2.8649999E-03    1.0000011E-24
  2.9000000E-03    1.0000002E-24
  2.9350000E-03    1.0000001E-24
  2.9700000E-03    1.0000005E-24
  3.0050001E-03    1.0000001E-24
  3.0400001E-03    9.9999923E-25
  3.0749999E-03    9.9999893E-25
  3.1099999E-03    1.0000003E-24
  3.1450000E-03    1.0000017E-24
  3.1800000E-03    1.0000006E-24
  3.2150000E-03    9.9999903E-25
  3.2500001E-03    9.9999893E-25
  3.2850001E-03    9.9999953E-25
  3.3199999E-03    1.0000003E-24
  3.3549999E-03    1.0000009E-24
  3.3900000E-03    1.0000010E-24
  3.4250000E-03    1.0000011E-24
  3.4600000E-03    1.0000011E-24
  3.4950001E-03    1.0000001E-24
  3.5300001E-03    9.9999903E-25
  3.5649999E-03    9.9999874E-25
  3.5999999E-03    9.9999884E-25
  3.6350000E-03    1.0000003E-24
  3.6700000E-03    1.0000019E-24
  3.7050000E-03    1.0000013E-24
  3.7400001E-03    9.9999943E-25
  3.7750001E-03    9.9999874E-25
  3.8099999E-03    1.0000001E-24
  3.8449999E-03    1.0000009E-24
  3.8800000E-03    9.9999953E-25
  3.9149998E-03    9.9999884E-25
  3.9499998E-03    1.0000002E-24
  3.9849998E-03    1.0000002E-24
  4.0199999E-03    9.9999963E-25
  4.0549999E-03    1.0000009E-24
  4.0899999E-03    1.0000011E-24
  4.1250000E-03    9.9999963E-25
  4.1600000E-03    9.9999943E-25
  4.1950000E-03    9.9999982E-25
  4.2300001E-03    9.9999982E-25
  4.2650001E-03    1.0000005E-24
  4.3000001E-03    1.0000008E-24
  4.3350002E-03    1.0000002E-24
  4.3700002E-03    9.9999982E-25
  4.4049998E-03    9.9999963E-25
  4.4399998E-03    9.9999913E-25
  4.4749998E-03    9.9999933E-25
  4.5099999E-03    9.9999992E-25
  4.5449999E-03    1.0000002E-24
  4.5799999E-03    1.0000010E-24
  4.6150000E-03    1.0000009E-24
  4.6500000E-03    1.0000000E-24
  4.6850001E-03    9.9999982E-25
  4.7200001E-03    1.0000005E-24
  4.7550001E-03    9.9999982E-25
  4.7900002E-03    9.9999844E-25
  4.8250002E-03    9.9999903E-25
  4.8600002E-03    1.0000013E-24
  4.8949998E-03    1.0000016E-24
  4.9299998E-03    1.0000005E-24
  4.9649999E-03    1.0000008E-24
  4.9999999E-03    1.0000003E-24
  5.0349999E-03    9.9999854E-25
  5.0700000E-03    9.9999913E-25
  5.1050000E-03    1.0000013E-24
  5.1400000E-03    1.0000002E-24
  5.1750001E-03    9.9999785E-25
  5.2100001E-03    9.9999785E-25
  5.2450001E-03    1.0000008E-24
  5.2800002E-03    1.0000035E-24
  5.3150002E-03    1.0000010E-24
  5.3500002E-03    9.9999538E-25
  5.3849998E-03    9.9999844E-25
  5.4199998E-03    1.0000093E-24
  5.4549999E-03    1.0000050E-24
  5.4899999E-03    9.9998474E-25
  5.5249999E-03    9.9998651E-25
  5.5600000E-03    1.0000205E-24
  5.5950000E-03    1.0000274E-24
  5.6300000E-03    9.9997448E-25
  5.6650001E-03    9.9994490E-25
  5.7000001E-03    1.0000213E-24
  5.7350001E-03    1.0000946E-24
  5.7700002E-03    9.9999972E-25
  5.8050002E-03    9.9985447E-25
  5.8400002E-03    9.9995348E-25
  5.8749998E-03    1.0002156E-24
  5.9099998E-03    1.0001477E-24
  5.9449999E-03    9.9970637E-25
  5.9799999E-03    9.9967333E-25
  6.0149999E-03    1.0003564E-24
  6.0500000E-03    1.0006255E-24
  6.0850000E-03    9.9966219E-25
  6.1200000E-03    9.9891721E-25
  6.1550001E-03    1.0001587E-24
  6.1900001E-03    1.0017276E-24
  6.2250001E-03    1.0003230E-24
  6.2600002E-03    9.9739362E-25
  6.2950002E-03    9.9857711E-25
  6.3299998E-03    1.0035072E-24
  6.3649998E-03    1.0033360E-24
  6.3999998E-03    9.9566513E-25
  6.4349999E-03    9.9310202E-25
  6.4699999E-03    1.0038352E-24
  6.5049999E-03    1.0115628E-24
  6.5400000E-03    9.9802323E-25
  6.5750000E-03    9.8145262E-25
  6.6100000E-03    9.9616980E-25
  6.6450001E-03    1.0271736E-24
  6.6800001E-03    1.0164844E-24
  6.7150001E-03    9.6480272E-25
  6.7500002E-03    9.6109399E-25
  6.7850002E-03    1.0381969E-24
  6.8199998E-03    1.0721429E-24
  6.8549998E-03    9.6757517E-25
  6.8899998E-03    8.7910235E-25
  6.9249999E-03    1.0057056E-24
  6.9599999E-03    1.1861453E-24
  6.9949999E-03    1.0596920E-24
  7.0300000E-03    7.4142137E-25
  7.0650000E-03    8.1362961E-25
  7.1000000E-03    1.3210686E-24
  7.1350001E-03    1.4092351E-24
  7.1700001E-03    6.8269827E-25
  7.2050001E-03    2.7080362E-25
  7.2400002E-03    1.1954906E-24
  7.2750002E-03    2.1554403E-24
  7.3099998E-03    1.1365681E-24
  7.3449998E-03   -6.7180228E-25
  7.3799998E-03    1.6852374E-25
  7.4149999E-03    3.1836111E-24
  7.4499999E-03    3.0854937E-24
  7.4850000E-03   -1.4327127E-24
  7.5200000E-03   -3.0205405E-24
  7.5550000E-03    3.0391693E-24
  7.5900001E-03    7.7041679E-24
  7.6250001E-03    5.4886472E-25
  7.6600001E-03   -9.0668036E-24
  7.6950002E-03   -2.2304170E-24
  7.7300002E-03    1.4541829E-23
  7.7650002E-03    1.0978916E-23
  7.7999998E-03   -1.4959845E-23
  7.8349998E-03   -1.9743267E-23
  7.8699999E-03    1.6259982E-23
  7.9049999E-03    3.7126047E-23
  7.9399999E-03   -7.1321135E-24
  7.9750000E-03   -5.4599360E-23
  8.0100000E-03   -8.8616327E-24
  8.0450000E-03    7.7632426E-23
  8.0800001E-03    4.5245300E-23
  8.1150001E-03   -9.2212482E-23
  8.1500001E-03   -9.8997569E-23
  8.1850002E-03    9.6349597E-23
  8.2200002E-03    1.8224157E-22
  8.2550002E-03   -6.4494882E-23
  8.2900003E-03   -2.8414669E-22
  8.3250003E-03   -1.7316813E-23
  8.3600003E-03    4.0096760E-22
  8.3950004E-03    1.8491487E-22
  8.4300004E-03   -4.9586337E-22
  8.4650004E-03   -4.5663768E-22
  8.5000005E-03    5.2578435E-22
  8.5349996E-03    8.5620857E-22
  8.5699996E-03   -4.0500952E-22
  8.6049996E-03   -1.3687626E-21
  8.6399997E-03    3.2728583E-23
  8.6749997E-03    1.9443082E-21
  8.7099997E-03    7.2479490E-22
  8.7449998E-03   -2.4443753E-21
  8.7799998E-03   -1.9825062E-21
  8.8149998E-03    2.6466839E-21
  8.8499999E-03    3.8295401E-21
  8.8849999E-03   -2.1761430E-21
  8.9199999E-03   -6.2017305E-21
  8.9550000E-03    5.8109620E-22
  8.9900000E-03    8.8653761E-21
  9.0250000E-03    2.7098675E-21
  9.0600001E-03   -1.1218851E-20
  9.0950001E-03   -8.1967508E-21
  9.1300001E-03    1.2275230E-20
  9.1650002E-03    1.6195158E-20
  9.2000002E-03   -1.0517942E-20
  9.2350002E-03   -2.6478683E-20
  9.2700003E-03    3.9871547E-21
  9.3050003E-03    3.7962688E-20
  9.3400003E-03    9.5175951E-21
  9.3750004E-03   -4.8272054E-20
  9.4100004E-03   -3.2080252E-20
  9.4450004E-03    5.3272781E-20
  9.4799995E-03    6.4749391E-20
  9.5149996E-03   -4.7078245E-20
  9.5499996E-03   -1.0662789E-19
  9.5849996E-03    2.1997305E-20
  9.6199997E-03    1.5327992E-19
  9.6549997E-03    3.0371277E-20
  9.6899997E-03   -1.9541852E-19
  9.7249998E-03   -1.1759505E-19
  9.7599998E-03    2.1758821E-19
  9.7949998E-03    2.4351259E-19
  9.8299999E-03   -1.9735869E-19
  9.8649999E-03   -4.0395843E-19
  9.8999999E-03    1.0701033E-19
  9.9350000E-03    5.8231354E-19
  9.9700000E-03    8.3446937E-20
  1.0005000E-02   -7.4483194E-19
  1.0040000E-02   -4.0049379E-19
  1.0075000E-02    8.3599360E-19
  1.0110000E-02    8.5605702E-19
  1.0145000E-02   -7.7804893E-19
  1.0180000E-02   -1.4345188E-18
  1.0215000E-02    4.7553156E-19
  1.0250000E-02    2.0782127E-18
  1.0285000E-02    1.7384677E-19
  1.0320000E-02   -2.6696322E-18
  1.0355000E-02   -1.2549209E-18
  1.0390000E-02    3.0237968E-18
  1.0425000E-02    2.8049223E-18
  1.0460000E-02   -2.8853019E-18
  1.0495000E-02   -4.7716286E-18
  1.0530000E-02    1.9422037E-18
  1.0565000E-02    6.9614602E-18
  1.0600000E-02    1.2725007E-19
  1.0635000E-02   -9.0021727E-18
  1.0670000E-02   -3.5979586E-18
  1.0705000E-02    1.0292183E-17
  1.0740000E-02    8.5651045E-18
  1.0775000E-02   -1.0041555E-17
  1.0810000E-02   -1.4858377E-17
  1.0845000E-02    7.3019741E-18
  1.0880000E-02    2.1883134E-17
  1.0915000E-02   -1.0906079E-18
  1.0950000E-02   -2.8484474E-17
  1.0985000E-02   -9.3820612E-18
  1.1020000E-02    3.2876366E-17
  1.1055000E-02    2.4394881E-17
  1.1090000E-02   -3.2710907E-17
  1.1125000E-02   -4.3396992E-17
  1.1160000E-02    2.5204875E-17
  1.1195000E-02    6.4582153E-17
  1.1230000E-02   -7.6021579E-18
  1.1265000E-02   -8.4593035E-17
  1.1300000E-02   -2.2255758E-17
  1.1335000E-02    9.8332425E-17
  1.1370000E-02    6.5006642E-17
  1.1405000E-02   -9.9266438E-17
  1.1440000E-02   -1.1899152E-16
  1.1475000E-02    7.9741885E-17
  1.1510000E-02    1.7893362E-16
  1.1545000E-02   -3.2471815E-17
  1.1580000E-02   -2.3554522E-16
  1.1615000E-02   -4.8019237E-17
  1.1650000E-02    2.7505910E-16
  1.1685000E-02    1.6298820E-16
  1.1720000E-02   -2.7993131E-16
  1.1755000E-02   -3.0689285E-16
  1.1790000E-02    2.3098395E-16
  1.1825000E-02    4.6558526E-16
  1.1860000E-02   -1.0999257E-16
  1.1895000E-02   -6.1420725E-16
  1.1930000E-02   -9.5439226E-17
  1.1965000E-02    7.1749932E-16
  1.2000000E-02    3.8625724E-16
  1.2035000E-02   -7.3199788E-16
  1.2070000E-02   -7.4613131E-16
  1.2105000E-02    6.1146313E-16
  1.2140000E-02    1.1367539E-15
  1.2175000E-02   -3.1596155E-16
  1.2210000E-02   -1.4967512E-15
  1.2245000E-02   -1.7944124E-16
  1.2280000E-02    1.7409156E-15
  1.2315000E-02    8.6990612E-16
  1.2350000E-02   -1.7694526E-15
  1.2385000E-02   -1.7098904E-15
  1.2420000E-02    1.4805936E-15
  1.2455000E-02    2.6041782E-15
  1.2490000E-02   -7.9108176E-16
  1.2525000E-02   -3.4051108E-15
  1.2560000E-02   -3.3761833E-16
  1.2595000E-02    3.9229200E-15
  1.2630000E-02    1.8767544E-15
  1.2665000E-02   -3.9420545E-15
  1.2700000E-02   -3.7030709E-15
  1.2735000E-02    3.2607150E-15
  1.2770000E-02    5.5931267E-15
  1.2805000E-02   -1.7275716E-15
  1.2840000E-02   -7.2193118E-15
  1.2875000E-02   -6.9903559E-16
  1.2910000E-02    8.1832166E-15
  1.2945000E-02    3.9085806E-15
  1.2980000E-02   -8.0617191E-15
  1.3015000E-02   -7.5990638E-15
  1.3050000E-02    6.4854128E-15
  1.3085000E-02    1.1272052E-14
  1.3120000E-02   -3.2229078E-15
  1.3155000E-02   -1.4247397E-14
  1.3190000E-02   -1.7105645E-15
  1.3225000E-02    1.5747720E-14
  1.3260000E-02    7.9864653E-15
  1.3295000E-02   -1.4998143E-14
  1.3330000E-02   -1.4896386E-14
  1.3365000E-02    1.1408772E-14
  1.3400000E-02    2.1394373E-14
  1.3435000E-02   -4.7131586E-15
  1.3470000E-02   -2.6145444E-14
  1.3505000E-02   -4.8228519E-15
  1.3540000E-02    2.7740883E-14
  1.3575000E-02    1.6332355E-14
  1.3610000E-02   -2.4899792E-14
  1.3645000E-02   -2.8265434E-14
  1.3680000E-02    1.6809096E-14
  1.3715000E-02    3.8509543E-14
  1.3750000E-02   -3.4065967E-15
  1.3785000E-02   -4.4588370E-14
  1.3820000E-02   -1.4317935E-14
  1.3855000E-02    4.4079900E-14
  1.3890000E-02    3.4211742E-14
  1.3925000E-02   -3.5092036E-14
  1.3960000E-02   -5.2963927E-14
  1.3995000E-02    1.6884233E-14
  1.4030000E-02    6.6462833E-14
  1.4065000E-02    9.6490444E-15
  1.4100000E-02   -7.0333117E-14
  1.4135000E-02   -4.1616755E-14
  1.4170000E-02    6.0734207E-14
  1.4205000E-02    7.3999692E-14
  1.4240000E-02   -3.5356002E-14
  1.4275000E-02   -9.9917944E-14
  1.4310000E-02   -5.4595907E-15
  1.4345000E-02    1.1155165E-13
  1.4380000E-02    5.7934831E-14
  1.4415000E-02   -1.0142425E-13
  1.4450000E-02   -1.1441278E-13
  1.4485000E-02    6.4123647E-14
  1.4520000E-02    1.6359550E-13
  1.4555000E-02    1.7710041E-15
  1.4590000E-02   -1.9165878E-13
  1.4625000E-02   -9.1987263E-14
  1.4660000E-02    1.8415922E-13
  1.4695000E-02    1.9516141E-13
  1.4730000E-02   -1.2910789E-13
  1.4765000E-02   -2.9276221E-13
  1.4800000E-02    2.0481799E-14
  1.4835000E-02    3.6047283E-13
  1.4870000E-02    1.3833184E-13
  1.4905000E-02   -3.7117670E-13
  1.4940000E-02   -3.3172881E-13
  1.4975000E-02    2.9967446E-13
  1.5010000E-02    5.3052913E-13
  1.5045000E-02   -1.2885224E-13
  1.5080000E-02   -6.9314135E-13
  1.5115000E-02   -1.4357202E-13
  1.5150000E-02    7.6978907E-13
  1.5185000E-02    4.9903056E-13
  1.5220000E-02   -7.1006986E-13
  1.5255000E-02   -8.9433739E-13
  1.5290000E-02    4.7340902E-13
  1.5325000E-02    1.2618876E-12
  1.5360000E-02   -4.0893165E-14
  1.5395000E-02   -1.5146117E-12
  1.5430000E-02   -5.7249881E-13
  1.5465000E-02    1.5576857E-12
  1.5500000E-02    1.3096856E-12
  1.5535000E-02   -1.3045395E-12
  1.5570000E-02   -2.0675519E-12
  1.5605000E-02    6.9841106E-13
  1.5640000E-02    2.7028338E-12
  1.5675001E-02    2.6607186E-13
  1.5710000E-02   -3.0478666E-12
  1.5745001E-02   -1.5249347E-12
  1.5780000E-02    2.9359455E-12
  1.5814999E-02    2.9342466E-12
  1.5850000E-02   -2.2360948E-12
  1.5884999E-02   -4.2740169E-12
  1.5920000E-02    8.9028746E-13
  1.5954999E-02    5.2679358E-12
  1.5990000E-02    1.0517740E-12
  1.6024999E-02   -5.6214495E-12
  1.6060000E-02   -3.4096426E-12
  1.6094999E-02    5.0754253E-12
  1.6130000E-02    5.8698337E-12
  1.6164999E-02   -3.4672616E-12
  1.6200000E-02   -8.0086649E-12
  1.6235000E-02    7.9158246E-13
  1.6270000E-02    9.3459069E-12
  1.6305000E-02    2.7556056E-12
  1.6340001E-02   -9.4240839E-12
  1.6375000E-02   -6.7616468E-12
  1.6410001E-02    7.9041738E-12
  1.6445000E-02    1.0621433E-11
  1.6480001E-02   -4.6635426E-12
  1.6515000E-02   -1.3608964E-11
  1.6550001E-02   -1.2736105E-13
  1.6585000E-02    1.4990079E-11
  1.6620001E-02    5.9682849E-12
  1.6655000E-02   -1.4165152E-11
  1.6690001E-02   -1.2052613E-11
  1.6725000E-02    1.0816052E-11
  1.6759999E-02    1.7357659E-11
  1.6795000E-02   -5.0295519E-12
  1.6829999E-02   -2.0800318E-11
  1.6865000E-02   -2.6369440E-12
  1.6899999E-02    2.1437230E-11
  1.6935000E-02    1.1172124E-11
  1.6969999E-02   -1.8677674E-11
  1.7005000E-02   -1.9226017E-11
  1.7039999E-02    1.2463022E-11
  1.7075000E-02    2.5315075E-11
  1.7109999E-02   -3.3713275E-12
  1.7145000E-02   -2.8094501E-11
  1.7180000E-02   -7.3944123E-12
  1.7215000E-02    2.6646234E-11
  1.7250000E-02    1.8148353E-11
  1.7285001E-02   -2.0726797E-11
  1.7320000E-02   -2.6989256E-11
  1.7355001E-02    1.0911318E-11
  1.7390000E-02    3.2154050E-11
  1.7425001E-02    1.4141509E-12
  1.7460000E-02   -3.2393439E-11
  1.7495001E-02   -1.4234276E-11
  1.7530000E-02    2.7289509E-11
  1.7565001E-02    2.5245788E-11
  1.7600000E-02   -1.7435355E-11
  1.7635001E-02   -3.2304215E-11
  1.7670000E-02    4.4176360E-12
  1.7704999E-02    3.3889738E-11
  1.7740000E-02    9.4196820E-12
  1.7774999E-02   -2.9490025E-11
  1.7810000E-02   -2.1405643E-11
  1.7844999E-02    1.9802229E-11
  1.7880000E-02    2.9093250E-11
  1.7914999E-02   -6.6830231E-12
  1.7950000E-02   -3.0815073E-11
  1.7984999E-02   -7.1691251E-12
  1.8020000E-02    2.6113344E-11
  1.8054999E-02    1.8751048E-11
  1.8090000E-02   -1.5934656E-11
  1.8124999E-02   -2.5410894E-11
  1.8160000E-02    2.5185058E-12
  1.8195000E-02    2.5480642E-11
  1.8230001E-02    1.1025206E-11
  1.8265000E-02   -1.8730505E-11
  1.8300001E-02   -2.1376002E-11
  1.8335000E-02    6.5209444E-12
  1.8370001E-02    2.5761457E-11
  1.8405000E-02    8.4094866E-12
  1.8440001E-02   -2.2635647E-11
  1.8475000E-02   -2.2488667E-11
  1.8510001E-02    1.2117728E-11
  1.8545000E-02    3.2085095E-11
  1.8580001E-02    3.9308882E-12
  1.8615000E-02   -3.4343407E-11
  1.8650001E-02   -2.2237746E-11
  1.8685000E-02    2.7872215E-11
  1.8719999E-02    3.8786408E-11
  1.8755000E-02   -1.3119796E-11
  1.8789999E-02   -4.9668863E-11
  1.8825000E-02   -7.6527933E-12
  1.8859999E-02    5.1929364E-11
  1.8895000E-02    3.0795262E-11
  1.8929999E-02   -4.4214233E-11
  1.8965000E-02   -5.2004574E-11
  1.8999999E-02    2.7065329E-11
  1.9035000E-02    6.7192744E-11
  1.9069999E-02   -2.7918893E-12
  1.9105000E-02   -7.3261071E-11
  1.9140000E-02   -2.5004936E-11
  1.9175000E-02    6.8619554E-11
  1.9210000E-02    5.2101296E-11
  1.9245001E-02   -5.3400832E-11
  1.9280000E-02   -7.4384138E-11
  1.9315001E-02    2.9344548E-11
  1.9350000E-02    8.8492443E-11
  1.9385001E-02    5.9328128E-13
  1.9420000E-02   -9.2222403E-11
  1.9455001E-02   -3.2746604E-11
  1.9490000E-02    8.4669230E-11
  1.9525001E-02    6.3183174E-11
  1.9560000E-02   -6.6245093E-11
  1.9595001E-02   -8.8096197E-11
  1.9630000E-02    3.8621436E-11
  1.9664999E-02    1.0416662E-10
  1.9700000E-02   -4.6005196E-12
  1.9734999E-02   -1.0890037E-10
  1.9770000E-02   -3.2092402E-11
  1.9804999E-02    1.0090234E-10
  1.9840000E-02    6.6999413E-11
  1.9874999E-02   -8.0274794E-11
  1.9910000E-02   -9.5356570E-11
  1.9944999E-02    4.8961713E-11
  1.9980000E-02    1.1280493E-10
  2.0014999E-02   -1.0839246E-11
  2.0050000E-02   -1.1634185E-10
  2.0085000E-02   -2.8762126E-11
  2.0120000E-02    1.0502132E-10
  2.0155000E-02    6.3765541E-11
  2.0190001E-02   -8.0578232E-11
  2.0225000E-02   -8.8614782E-11
  2.0260001E-02    4.7379389E-11
  2.0295000E-02    9.9602854E-11
  2.0330001E-02   -1.1755843E-11
  2.0365000E-02   -9.6183325E-11
  2.0400001E-02   -1.9797244E-11
  2.0435000E-02    8.0948456E-11
  2.0470001E-02    4.2085054E-11
  2.0505000E-02   -5.9205578E-11
  2.0540001E-02   -5.2921077E-11
  2.0575000E-02    3.7158235E-11
  2.0609999E-02    5.3436061E-11
  2.0645000E-02   -2.0367293E-11
  2.0679999E-02   -4.8229771E-11
  2.0715000E-02    1.1105509E-11
  2.0749999E-02    4.2826149E-11
  2.0785000E-02   -8.3370559E-12
  2.0819999E-02   -4.2227111E-11
  2.0855000E-02    7.3359730E-12
  2.0889999E-02    4.7824369E-11
  2.0925000E-02   -2.7201915E-12
  2.0959999E-02   -5.7807040E-11
  2.0995000E-02   -1.0662668E-11
  2.1029999E-02    6.5743175E-11
  2.1065000E-02    3.3103877E-11
  2.1100000E-02   -6.5176337E-11
  2.1135001E-02   -6.1496280E-11
  2.1170000E-02    4.9872790E-11
  2.1205001E-02    8.7068332E-11
  2.1240000E-02   -1.9841961E-11
  2.1275001E-02   -1.0152611E-10
  2.1310000E-02   -2.1383836E-11
  2.1345001E-02    9.6010283E-11
  2.1380000E-02    6.2384389E-11
  2.1415001E-02   -7.0142406E-11
  2.1450000E-02   -9.3086081E-11
  2.1485001E-02    2.6963959E-11
  2.1520000E-02    1.0194329E-10
  2.1555001E-02    2.0678003E-11
  2.1590000E-02   -8.7628661E-11
  2.1624999E-02   -6.2424718E-11
  2.1660000E-02    5.0480266E-11
  2.1694999E-02    8.3062807E-11
  2.1730000E-02   -4.8331911E-12
  2.1764999E-02   -8.0918459E-11
  2.1800000E-02   -3.9334404E-11
  2.1834999E-02    5.4885842E-11
  2.1870000E-02    6.6152084E-11
  2.1904999E-02   -1.9267208E-11
  2.1940000E-02   -7.5905504E-11
  2.1974999E-02   -2.0732277E-11
  2.2010000E-02    6.2926407E-11
  2.2045000E-02    4.7353160E-11
  2.2080000E-02   -4.2570208E-11
  2.2115000E-02   -6.3688818E-11
  2.2150001E-02    1.7246687E-11
  2.2185000E-02    6.4666140E-11
  2.2220001E-02   -2.8813456E-12
  2.2255000E-02   -6.9263220E-11
  2.2290001E-02   -1.4025107E-11
  2.2325000E-02    7.0623958E-11
  2.2360001E-02    2.7359176E-11
  2.2395000E-02   -8.1334543E-11
  2.2430001E-02   -5.7187213E-11
  2.2465000E-02    8.2412903E-11
  2.2500001E-02    9.5223697E-11
  2.2535000E-02   -7.5953507E-11
  2.2569999E-02   -1.5605589E-10
  2.2605000E-02    2.5635686E-11
  2.2639999E-02    2.0037785E-10
  2.2675000E-02    5.3435589E-11
  2.2709999E-02   -2.2243694E-10
  2.2745000E-02   -1.6984919E-10
  2.2779999E-02    1.8019855E-10
  2.2815000E-02    2.7690830E-10
  2.2849999E-02   -8.6554278E-11
  2.2885000E-02   -3.6576300E-10
  2.2919999E-02   -8.0239260E-11
  2.2955000E-02    3.6822576E-10
  2.2990000E-02    2.5846159E-10
  2.3025000E-02   -2.8841804E-10
  2.3060000E-02   -4.2366166E-10
  2.3095001E-02    1.0432318E-10
  2.3130000E-02    4.9368309E-10
  2.3165001E-02    1.1360717E-10
  2.3200000E-02   -4.7304977E-10
  2.3235001E-02   -3.5077063E-10
  2.3270000E-02    3.1294983E-10
  2.3305001E-02    5.0234222E-10
  2.3340000E-02   -7.8203763E-11
  2.3375001E-02   -5.4502053E-10
  2.3410000E-02   -1.9547118E-10
  2.3445001E-02    4.2946538E-10
  2.3480000E-02    3.9327056E-10
  2.3514999E-02   -2.2567920E-10
  2.3550000E-02   -4.9743781E-10
  2.3584999E-02   -4.7482511E-11
  2.3620000E-02    4.3759049E-10
  2.3654999E-02    2.7035832E-10
  2.3690000E-02   -2.6557703E-10
  2.3724999E-02   -4.0013814E-10
  2.3760000E-02    1.2777454E-11
  2.3794999E-02    3.6310896E-10
  2.3830000E-02    1.9088355E-10
  2.3864999E-02   -2.2131191E-10
  2.3900000E-02   -3.1035910E-10
  2.3934999E-02    4.6454372E-12
  2.3970000E-02    2.8175309E-10
  2.4005000E-02    1.7780685E-10
  2.4040001E-02   -1.4122982E-10
  2.4075000E-02   -2.6599484E-10
  2.4110001E-02   -6.2027536E-11
  2.4145000E-02    2.0213112E-10
  2.4180001E-02    2.0570957E-10
  2.4215000E-02   -4.8388543E-11
  2.4250001E-02   -2.4848845E-10
  2.4285000E-02   -1.4120272E-10
  2.4320001E-02    1.5820739E-10
  2.4355000E-02    2.7629324E-10
  2.4390001E-02    3.4310905E-11
  2.4425000E-02   -2.8119446E-10
  2.4460001E-02   -2.3908772E-10
  2.4495000E-02    1.4777748E-10
  2.4529999E-02    3.6860973E-10
  2.4565000E-02    8.6926452E-11
  2.4599999E-02   -3.3790459E-10
  2.4635000E-02   -2.9716229E-10
  2.4669999E-02    1.8882056E-10
  2.4705000E-02    4.4018875E-10
  2.4739999E-02    7.2183787E-11
  2.4775000E-02   -4.1512987E-10
  2.4809999E-02   -3.2047962E-10
  2.4845000E-02    2.4312655E-10
  2.4879999E-02    4.8121773E-10
  2.4915000E-02    4.5322163E-11
  2.4950000E-02   -4.5243004E-10
  2.4985000E-02   -2.9536790E-10
  2.5020000E-02    3.0885117E-10
  2.5055001E-02    5.0041971E-10
  2.5090000E-02   -1.1255111E-11
  2.5125001E-02   -5.0734356E-10
  2.5160000E-02   -2.6965141E-10
  2.5195001E-02    3.7343773E-10
  2.5230000E-02    4.9698129E-10
  2.5265001E-02   -8.3330925E-11
  2.5300000E-02   -5.3269233E-10
  2.5335001E-02   -2.0719899E-10
  2.5370000E-02    4.1597412E-10
  2.5405001E-02    4.4452683E-10
  2.5440000E-02   -1.4621968E-10
  2.5474999E-02   -5.1139359E-10
  2.5510000E-02   -1.5070978E-10
  2.5544999E-02    4.2405979E-10
  2.5580000E-02    4.3338089E-10
  2.5614999E-02   -1.1987424E-10
  2.5650000E-02   -4.8834381E-10
  2.5684999E-02   -1.8227662E-10
  2.5720000E-02    3.8627729E-10
  2.5754999E-02    4.3798024E-10
  2.5790000E-02   -1.2890128E-10
  2.5824999E-02   -5.5560739E-10
  2.5860000E-02   -2.3237050E-10
  2.5895000E-02    4.1682452E-10
  2.5930000E-02    4.7780530E-10
  2.5965000E-02   -1.4955488E-10
  2.6000001E-02   -5.7249527E-10
  2.6035000E-02   -1.8702660E-10
  2.6070001E-02    4.4266457E-10
  2.6105000E-02    4.2118461E-10
  2.6140001E-02   -1.8357196E-10
  2.6175000E-02   -4.9917087E-10
  2.6210001E-02   -1.3371895E-10
  2.6245000E-02    3.4500561E-10
  2.6280001E-02    2.9948366E-10
  2.6315000E-02   -1.4366841E-10
  2.6350001E-02   -3.9601519E-10
  2.6385000E-02   -1.9946260E-10
  2.6419999E-02    1.5963014E-10
  2.6455000E-02    2.6570091E-10
  2.6489999E-02    1.4271953E-11
  2.6525000E-02   -2.9887059E-10
  2.6559999E-02   -2.8087005E-10
  2.6595000E-02    8.6364742E-11
  2.6629999E-02    3.4484582E-10
  2.6665000E-02    1.1805702E-10
  2.6699999E-02   -3.2137565E-10
  2.6735000E-02   -3.6192815E-10
  2.6769999E-02    7.2819750E-11
  2.6805000E-02    3.6256353E-10
  2.6839999E-02    6.7244009E-11
  2.6875000E-02   -4.0868686E-10
  2.6910000E-02   -3.7736317E-10
  2.6945001E-02    1.2791816E-10
  2.6980000E-02    3.7946649E-10