 -4.8000002E-03    1.0000000E-24
 -4.7650002E-03    1.0000002E-24
 -4.7300002E-03    1.0000001E-24
 -4.6950001E-03    1.0000002E-24
 -4.6600001E-03    1.0000002E-24
 -4.6250001E-03    1.0000000E-24
 -4.5900000E-03    1.0000000E-24
 -4.5550000E-03    1.0000001E-24
 -4.5200000E-03    1.0000001E-24
 -4.4849999E-03    9.9999972E-25
 -4.4499999E-03    1.0000000E-24
 -4.4149999E-03    1.0000005E-24
 -4.3799998E-03    1.0000005E-24
 -4.3449998E-03    9.9999982E-25
 -4.3100002E-03    9.9999982E-25
 -4.2750002E-03    1.0000006E-24
 -4.2400002E-03    1.0000005E-24
 -4.2050001E-03    9.9999972E-25
 -4.1700001E-03    9.9999963E-25
 -4.1350001E-03    1.0000003E-24
 -4.1000000E-03    1.0000005E-24
 -4.0650000E-03    1.0000001E-24
 -4.0300000E-03    9.9999982E-25
 -3.9949999E-03    9.9999972E-25
 -3.9599999E-03    1.0000000E-24
 -3.9249999E-03    1.0000004E-24
 -3.8900001E-03    1.0000001E-24
 -3.8550000E-03    9.9999982E-25
 -3.8200000E-03    1.0000002E-24
 -3.7849999E-03    1.0000005E-24
 -3.7499999E-03    9.9999992E-25
 -3.7150001E-03    9.9999943E-25
 -3.6800001E-03    1.0000001E-24
 -3.6450000E-03    1.0000006E-24
 -3.6100000E-03    1.0000001E-24
 -3.5750000E-03    9.9999972E-25
 -3.5399999E-03    1.0000002E-24
 -3.5049999E-03    1.0000006E-24
 -3.4700001E-03    1.0000004E-24
 -3.4350001E-03    9.9999963E-25
 -3.4000000E-03    9.9999963E-25
 -3.3650000E-03    1.0000000E-24
 -3.3300000E-03    9.9999982E-25
 -3.2949999E-03    1.0000001E-24
 -3.2599999E-03    1.0000006E-24
 -3.2250001E-03    1.0000001E-24
 -3.1900001E-03    9.9999972E-25
 -3.1550000E-03    1.0000004E-24
 -3.1200000E-03    1.0000003E-24
 -3.0850000E-03    9.9999943E-25
 -3.0499999E-03    9.9999992E-25
 -3.0149999E-03    1.0000012E-24
 -2.9800001E-03    1.0000007E-24
 -2.9450001E-03    9.9999913E-25
 -2.9100000E-03    9.9999943E-25
 -2.8750000E-03    1.0000004E-24
 -2.8400000E-03    9.9999963E-25
 -2.8049999E-03    9.9999913E-25
 -2.7699999E-03    1.0000008E-24
 -2.7350001E-03    1.0000011E-24
 -2.7000001E-03    9.9999982E-25
 -2.6650000E-03    9.9999982E-25
 -2.6300000E-03    1.0000006E-24
 -2.5950000E-03    9.9999972E-25
 -2.5599999E-03    9.9999953E-25
 -2.5249999E-03    1.0000009E-24
 -2.4900001E-03    1.0000008E-24
 -2.4550001E-03    9.9999943E-25
 -2.4200000E-03    1.0000000E-24
 -2.3850000E-03    1.0000010E-24
 -2.3500000E-03    9.9999953E-25
 -2.3149999E-03    9.9999874E-25
 -2.2799999E-03    1.0000006E-24
 -2.2450001E-03    1.0000010E-24
 -2.2100001E-03    9.9999903E-25
 -2.1750000E-03    9.9999913E-25
 -2.1400000E-03    1.0000011E-24
 -2.1050000E-03    1.0000005E-24
 -2.0699999E-03    9.9999884E-25
 -2.0349999E-03    9.9999982E-25
 -2.0000001E-03    1.0000014E-24
 -1.9650001E-03    1.0000003E-24
 -1.9300000E-03    9.9999953E-25
 -1.8950000E-03    1.0000008E-24
 -1.8600000E-03    1.0000008E-24
 -1.8250000E-03    9.9999933E-25
 -1.7900000E-03    9.9999903E-25
 -1.7550000E-03    1.0000006E-24
 -1.7199999E-03    1.0000006E-24
 -1.6850000E-03    1.0000005E-24
 -1.6500000E-03    1.0000004E-24
 -1.6150000E-03    9.9999923E-25
 -1.5800000E-03    9.9999864E-25
 -1.5450000E-03    9.9999992E-25
 -1.5100000E-03    1.0000007E-24
 -1.4750001E-03    1.0000000E-24
 -1.4400000E-03    9.9999992E-25
 -1.4050000E-03    1.0000006E-24
 -1.3700000E-03    1.0000003E-24
 -1.3350000E-03    9.9999893E-25
 -1.3000000E-03    9.9999884E-25
 -1.2650000E-03    1.0000008E-24
 -1.2300001E-03    1.0000020E-24
 -1.1950000E-03    1.0000006E-24
 -1.1600000E-03    9.9999953E-25
 -1.1250000E-03    1.0000002E-24
 -1.0900000E-03    1.0000006E-24
 -1.0550000E-03    9.9999953E-25
 -1.0200000E-03    9.9999923E-25
 -9.8500005E-04    1.0000004E-24
 -9.5000002E-04    1.0000007E-24
 -9.1499998E-04    9.9999992E-25
 -8.8000001E-04    1.0000000E-24
 -8.4499997E-04    1.0000001E-24
 -8.1000000E-04    9.9999963E-25
 -7.7500002E-04    1.0000002E-24
 -7.3999999E-04    1.0000012E-24
 -7.0500001E-04    1.0000003E-24
 -6.6999998E-04    9.9999903E-25
 -6.3500000E-04    1.0000001E-24
 -6.0000003E-04    1.0000009E-24
 -5.6499999E-04    9.9999923E-25
 -5.3000002E-04    9.9999844E-25
 -4.9499999E-04    1.0000005E-24
 -4.6000001E-04    1.0000017E-24
 -4.2500001E-04    9.9999943E-25
 -3.9000000E-04    9.9999854E-25
 -3.5500000E-04    1.0000014E-24
 -3.1999999E-04    1.0000021E-24
 -2.8499999E-04    9.9999953E-25
 -2.5000001E-04    9.9999874E-25
 -2.1499999E-04    1.0000014E-24
 -1.8000000E-04    1.0000016E-24
 -1.4500000E-04    9.9999884E-25
 -1.1000000E-04    9.9999864E-25
 -7.5000004E-05    1.0000007E-24
 -3.9999999E-05    1.0000001E-24
 -4.9999999E-06    9.9999854E-25
  2.9999999E-05    9.9999982E-25
  6.5000000E-05    1.0000014E-24
  9.9999997E-05    1.0000004E-24
  1.3499999E-04    9.9999992E-25
  1.7000000E-04    1.0000013E-24
  2.0500000E-04    1.0000005E-24
  2.3999999E-04    9.9999913E-25
  2.7500000E-04    1.0000001E-24
  3.1000000E-04    1.0000014E-24
  3.4500001E-04    9.9999953E-25
  3.8000001E-04    9.9999815E-25
  4.1499999E-04    1.0000001E-24
  4.4999999E-04    1.0000010E-24
  4.8500000E-04    9.9999953E-25
  5.2000000E-04    9.9999864E-25
  5.5499998E-04    1.0000004E-24
  5.9000001E-04    1.0000017E-24
  6.2499999E-04    1.0000003E-24
  6.6000002E-04    9.9999933E-25
  6.9500000E-04    1.0000002E-24
  7.3000003E-04    1.0000008E-24
  7.6500000E-04    1.0000004E-24
  7.9999998E-04    1.0000002E-24
  8.3500001E-04    9.9999972E-25
  8.6999999E-04    1.0000001E-24
  9.0500002E-04    1.0000005E-24
  9.4000000E-04    9.9999963E-25
  9.7499997E-04    9.9999903E-25
  1.0100000E-03    1.0000004E-24
  1.0450000E-03    1.0000006E-24
  1.0800000E-03    9.9999963E-25
  1.1150000E-03    9.9999982E-25
  1.1500000E-03    9.9999982E-25
  1.1849999E-03    9.9999963E-25
  1.2200000E-03    1.0000009E-24
  1.2550000E-03    1.0000004E-24
  1.2900000E-03    9.9999864E-25
  1.3250000E-03    1.0000002E-24
  1.3600000E-03    1.0000018E-24
  1.3950000E-03    9.9999992E-25
  1.4299999E-03    9.9999923E-25
  1.4650000E-03    1.0000004E-24
  1.5000000E-03    1.0000004E-24
  1.5350000E-03    9.9999982E-25
  1.5700000E-03    1.0000002E-24
  1.6050000E-03    1.0000004E-24
  1.6400000E-03    9.9999982E-25
  1.6749999E-03    9.9999982E-25
  1.7100000E-03    1.0000000E-24
  1.7450000E-03    9.9999953E-25
  1.7800000E-03    9.9999933E-25
  1.8150000E-03    1.0000012E-24
  1.8500000E-03    1.0000021E-24
  1.8850000E-03    9.9999963E-25
  1.9200000E-03    9.9999854E-25
  1.9550000E-03    1.0000003E-24
  1.9900000E-03    1.0000003E-24
  2.0250001E-03    9.9999933E-25
  2.0600001E-03    1.0000009E-24
  2.0949999E-03    1.0000016E-24
  2.1299999E-03    9.9999982E-25
  2.1650000E-03    9.9999943E-25
  2.2000000E-03    1.0000003E-24
  2.2350000E-03    1.0000003E-24
  2.2700001E-03    9.9999933E-25
  2.3050001E-03    9.9999884E-25
  2.3399999E-03    1.0000004E-24
  2.3749999E-03    1.0000018E-24
  2.4100000E-03    1.0000006E-24
  2.4450000E-03    9.9999844E-25
  2.4800000E-03    9.9999923E-25
  2.5150001E-03    1.0000008E-24
  2.5500001E-03    1.0000003E-24
  2.5849999E-03    9.9999972E-25
  2.6199999E-03    1.0000003E-24
  2.6550000E-03    1.0000007E-24
  2.6900000E-03    1.0000007E-24
  2.7250000E-03    1.0000000E-24
  2.7600001E-03    9.9999972E-25
  2.7950001E-03    1.0000004E-24
  2.8299999E-03    1.0000005E-24
  2.8649999E-03    1.0000001E-24
  2.9000000E-03    1.0000008E-24
  2.9350000E-03    1.0000009E-24
  2.9700000E-03    9.9999923E-25
  3.0050001E-03    9.9999913E-25
  3.0400001E-03    1.0000007E-24
  3.0749999E-03    9.9999982E-25
  3.1099999E-03    9.9999854E-25
  3.1450000E-03    9.9999943E-25
  3.1800000E-03    1.0000005E-24
  3.2150000E-03    9.9999992E-25
  3.2500001E-03    1.0000002E-24
  3.2850001E-03    1.0000010E-24
  3.3199999E-03    1.0000001E-24
  3.3549999E-03    9.9999953E-25
  3.3900000E-03    1.0000005E-24
  3.4250000E-03    1.0000007E-24
  3.4600000E-03    1.0000002E-24
  3.4950001E-03    9.9999992E-25
  3.5300001E-03    9.9999982E-25
  3.5649999E-03    9.9999972E-25
  3.5999999E-03    9.9999992E-25
  3.6350000E-03    9.9999992E-25
  3.6700000E-03    9.9999953E-25
  3.7050000E-03    9.9999963E-25
  3.7400001E-03    1.0000002E-24
  3.7750001E-03    9.9999982E-25
  3.8099999E-03    9.9999972E-25
  3.8449999E-03    1.0000015E-24
  3.8800000E-03    1.0000017E-24
  3.9149998E-03    9.9999844E-25
  3.9499998E-03    9.9999775E-25
  3.9849998E-03    1.0000019E-24
  4.0199999E-03    1.0000025E-24
  4.0549999E-03    9.9999874E-25
  4.0899999E-03    9.9999884E-25
  4.1250000E-03    1.0000027E-24
  4.1600000E-03    1.0000021E-24
  4.1950000E-03    9.9999864E-25
  4.2300001E-03    9.9999923E-25
  4.2650001E-03    1.0000007E-24
  4.3000001E-03    9.9999903E-25
  4.3350002E-03    9.9999785E-25
  4.3700002E-03    1.0000002E-24
  4.4049998E-03    1.0000013E-24
  4.4399998E-03    9.9999923E-25
  4.4749998E-03    9.9999953E-25
  4.5099999E-03    1.0000020E-24
  4.5449999E-03    1.0000002E-24
  4.5799999E-03    9.9999667E-25
  4.6150000E-03    9.9999923E-25
  4.6500000E-03    1.0000037E-24
  4.6850001E-03    1.0000017E-24
  4.7200001E-03    9.9999824E-25
  4.7550001E-03    1.0000002E-24
  4.7900002E-03    1.0000025E-24
  4.8250002E-03    9.9999933E-25
  4.8600002E-03    9.9999696E-25
  4.8949998E-03    9.9999923E-25
  4.9299998E-03    1.0000011E-24
  4.9649999E-03    1.0000002E-24
  4.9999999E-03    1.0000002E-24
  5.0349999E-03    1.0000016E-24
  5.0700000E-03    1.0000012E-24
  5.1050000E-03    9.9999844E-25
  5.1400000E-03    9.9999903E-25
  5.1750001E-03    1.0000018E-24
  5.2100001E-03    1.0000005E-24
  5.2450001E-03    9.9999824E-25
  5.2800002E-03    1.0000005E-24
  5.3150002E-03    1.0000028E-24
  5.3500002E-03    1.0000001E-24
  5.3849998E-03    9.9999824E-25
  5.4199998E-03    1.0000008E-24
  5.4549999E-03    1.0000015E-24
  5.4899999E-03    9.9999864E-25
  5.5249999E-03    9.9999903E-25
  5.5600000E-03    1.0000017E-24
  5.5950000E-03    1.0000011E-24
  5.6300000E-03    9.9999923E-25
  5.6650001E-03    1.0000005E-24
  5.7000001E-03    1.0000007E-24
  5.7350001E-03    9.9999795E-25
  5.7700002E-03    9.9999765E-25
  5.8050002E-03    1.0000006E-24
  5.8400002E-03    1.0000018E-24
  5.8749998E-03    1.0000005E-24
  5.9099998E-03    1.0000005E-24
  5.9449999E-03    1.0000013E-24
  5.9799999E-03    9.9999982E-25
  6.0149999E-03    9.9999874E-25
  6.0500000E-03    1.0000011E-24
  6.0850000E-03    1.0000020E-24
  6.1200000E-03    9.9999854E-25
  6.1550001E-03    9.9999824E-25
  6.1900001E-03    1.0000025E-24
  6.2250001E-03    1.0000008E-24
  6.2600002E-03    9.9999588E-25
  6.2950002E-03    1.0000000E-24
  6.3299998E-03    1.0000045E-24
  6.3649998E-03    9.9999775E-25
  6.3999998E-03    9.9999460E-25
  6.4349999E-03    1.0000032E-24
  6.4699999E-03    1.0000054E-24
  6.5049999E-03    9.9999706E-25
  6.5400000E-03    9.9999667E-25
  6.5750000E-03    1.0000035E-24
  6.6100000E-03    1.0000017E-24
  6.6450001E-03    9.9999637E-25
  6.6800001E-03    1.0000009E-24
  6.7150001E-03    1.0000050E-24
  6.7500002E-03    9.9999677E-25
  6.7850002E-03    9.9999282E-25
  6.8199998E-03    1.0000050E-24
  6.8549998E-03    1.0000072E-24
  6.8899998E-03    9.9998957E-25
  6.9249999E-03    9.9999292E-25
  6.9599999E-03    1.0000187E-24
  6.9949999E-03    1.0000055E-24
  7.0300000E-03    9.9997093E-25
  7.0650000E-03    1.0000019E-24
  7.1000000E-03    1.0000451E-24
  7.1350001E-03    9.9998474E-25
  7.1700001E-03    9.9993957E-25
  7.2050001E-03    1.0000458E-24
  7.2400002E-03    1.0000790E-24
  7.2750002E-03    9.9990378E-25
  7.3099998E-03    9.9990644E-25
  7.3449998E-03    1.0001762E-24
  7.3799998E-03    1.0000945E-24
  7.4149999E-03    9.9970282E-25
  7.4499999E-03    9.9992932E-25
  7.4850000E-03    1.0004656E-24
  7.5200000E-03    9.9999933E-25
  7.5550000E-03    9.9931539E-25
  7.5900001E-03    1.0001522E-24
  7.6250001E-03    1.0009527E-24
  7.6600001E-03    9.9957630E-25
  7.6950002E-03    9.9875372E-25
  7.7300002E-03    1.0008698E-24
  7.7650002E-03    1.0015196E-24
  7.7999998E-03    9.9845060E-25
  7.8349998E-03    9.9832290E-25
  7.8699999E-03    1.0025308E-24
  7.9049999E-03    1.0015633E-24
  7.9399999E-03    9.9612464E-25
  7.9750000E-03    9.9906759E-25
  8.0100000E-03    1.0056153E-24
  8.0450000E-03    9.9941468E-25
  8.0800001E-03    9.9227352E-25
  8.1150001E-03    1.0035187E-24
  8.1500001E-03    1.0100871E-24
  8.1850002E-03    9.9141830E-25
  8.2200002E-03    9.8759232E-25
  8.2550002E-03    1.0167009E-24
  8.2900003E-03    1.0141425E-24
  8.3250003E-03    9.7098148E-25
  8.3600003E-03    9.8562727E-25
  8.3950004E-03    1.0468616E-24
  8.4300004E-03    1.0116653E-24
  8.4650004E-03    9.2836701E-25
  8.5000005E-03    9.9611301E-25
  8.5349996E-03    1.1046086E-24
  8.5699996E-03    9.8798646E-25
  8.6049996E-03    8.5340629E-25
  8.6399997E-03    1.0402374E-24
  8.6749997E-03    1.1973657E-24
  8.7099997E-03    9.1361827E-25
  8.7449998E-03    7.4516033E-25
  8.7799998E-03    1.1576753E-24
  8.8149998E-03    1.3138929E-24
  8.8499999E-03    7.3685121E-25
  8.8849999E-03    6.3522457E-25
  8.9199999E-03    1.4136467E-24
  8.9550000E-03    1.3910236E-24
  8.9900000E-03    3.7844078E-25
  9.0250000E-03    6.3318458E-25
  9.0600001E-03    1.9001151E-24
  9.0950001E-03    1.2537964E-24
  9.1300001E-03   -2.6189652E-25
  9.1650002E-03    1.0026503E-24
  9.2000002E-03    2.7162122E-24
  9.2350002E-03    5.2239419E-25
  9.2700003E-03   -1.2648137E-24
  9.3050003E-03    2.2711453E-24
  9.3400003E-03    3.8952965E-24
  9.3750004E-03   -1.5129931E-24
  9.4100004E-03   -2.5714485E-24
  9.4450004E-03    5.3670692E-24
  9.4799995E-03    5.2198737E-24
  9.5149996E-03   -6.0354277E-24
  9.5499996E-03   -3.7123763E-24
  9.5849996E-03    1.1760917E-23
  9.6199997E-03    5.8440532E-24
  9.6549997E-03   -1.4827261E-23
  9.6899997E-03   -3.3079081E-24
  9.7249998E-03    2.3554129E-23
  9.7599998E-03    3.6677729E-24
  9.7949998E-03   -3.0282944E-23
  9.8299999E-03    1.6668304E-24
  9.8649999E-03    4.3345774E-23
  9.8999999E-03   -5.4601457E-24
  9.9350000E-03   -5.5005542E-23
  9.9700000E-03    1.6658526E-23
  1.0005000E-02    7.3348691E-23
  1.0040000E-02   -2.8385557E-23
  1.0075000E-02   -9.0105031E-23
  1.0110000E-02    4.9925410E-23
  1.0145000E-02    1.1236069E-22
  1.0180000E-02   -7.4707917E-23
  1.0215000E-02   -1.3012696E-22
  1.0250000E-02    1.1232356E-22
  1.0285000E-02    1.4772775E-22
  1.0320000E-02   -1.5662017E-22
  1.0355000E-02   -1.5098356E-22
  1.0390000E-02    2.1796025E-22
  1.0425000E-02    1.3820531E-22
  1.0460000E-02   -2.9173992E-22
  1.0495000E-02   -8.7068774E-23
  1.0530000E-02    3.9128465E-22
  1.0565000E-02   -1.4463493E-23
  1.0600000E-02   -5.1721634E-22
  1.0635000E-02    2.0087788E-22
  1.0670000E-02    6.9131196E-22
  1.0705000E-02   -4.9706285E-22
  1.0740000E-02   -9.2672946E-22
  1.0775000E-02    9.4887906E-22
  1.0810000E-02    1.2622044E-21
  1.0845000E-02   -1.5876344E-21
  1.0880000E-02   -1.7314548E-21
  1.0915000E-02    2.4557193E-21
  1.0950000E-02    2.3945098E-21
  1.0985000E-02   -3.5647946E-21
  1.1020000E-02   -3.3010113E-21
  1.1055000E-02    4.9143608E-21
  1.1090000E-02    4.5109285E-21
  1.1125000E-02   -6.4432749E-21
  1.1160000E-02   -6.0413972E-21
  1.1195000E-02    8.0440374E-21
  1.1230000E-02    7.8639568E-21
  1.1265000E-02   -9.5155368E-21
  1.1300000E-02   -9.8205071E-21
  1.1335000E-02    1.0588468E-20
  1.1370000E-02    1.1583048E-20
  1.1405000E-02   -1.0904888E-20
  1.1440000E-02   -1.2528537E-20
  1.1475000E-02    1.0093241E-20
  1.1510000E-02    1.1660466E-20
  1.1545000E-02   -7.8285343E-21
  1.1580000E-02   -7.4604235E-21
  1.1615000E-02    4.0266672E-21
  1.1650000E-02   -2.1786489E-21
  1.1685000E-02    9.3287091E-22
  1.1720000E-02    2.0023831E-20
  1.1755000E-02   -5.8107899E-21
  1.1790000E-02   -4.9383435E-20
  1.1825000E-02    8.0655869E-21
  1.1860000E-02    9.3829359E-20
  1.1895000E-02   -3.2713814E-21
  1.1930000E-02   -1.5650514E-19
  1.1965000E-02   -1.5377674E-20
  1.2000000E-02    2.3900228E-19
  1.2035000E-02    5.7407071E-20
  1.2070000E-02   -3.3954503E-19
  1.2105000E-02   -1.3478068E-19
  1.2140000E-02    4.5055861E-19
  1.2175000E-02    2.6062747E-19
  1.2210000E-02   -5.5562342E-19
  1.2245000E-02   -4.4618572E-19
  1.2280000E-02    6.2640795E-19
  1.2315000E-02    6.9535837E-19
  1.2350000E-02   -6.2042005E-19
  1.2385000E-02   -9.9612212E-19
  1.2420000E-02    4.8135284E-19
  1.2455000E-02    1.3087577E-18
  1.2490000E-02   -1.4427443E-19
  1.2525000E-02   -1.5515923E-18
  1.2560000E-02   -4.5123312E-19
  1.2595000E-02    1.5868487E-18
  1.2630000E-02    1.3370487E-18
  1.2665000E-02   -1.2112877E-18
  1.2700000E-02   -2.4793903E-18
  1.2735000E-02    1.5936721E-19
  1.2770000E-02    3.7292181E-18
  1.2805000E-02    1.8708904E-18
  1.2840000E-02   -4.7654036E-18
  1.2875000E-02   -5.1574777E-18
  1.2910000E-02    5.0434629E-18
  1.2945000E-02    9.8492222E-18
  1.2980000E-02   -3.7717306E-18
  1.3015000E-02   -1.5811638E-17
  1.3050000E-02   -5.3121054E-20
  1.3085000E-02    2.2432933E-17
  1.3120000E-02    7.5122632E-18
  1.3155000E-02   -2.8420126E-17
  1.3190000E-02   -1.9493823E-17
  1.3225000E-02    3.1643612E-17
  1.3260000E-02    3.6259456E-17
  1.3295000E-02   -2.9120063E-17
  1.3330000E-02   -5.6855942E-17
  1.3365000E-02    1.7250665E-17
  1.3400000E-02    7.8436005E-17
  1.3435000E-02    7.5598137E-18
  1.3470000E-02   -9.5631760E-17
  1.3505000E-02   -4.7801874E-17
  1.3540000E-02    1.0021792E-16
  1.3575000E-02    1.0325526E-16
  1.3610000E-02   -8.1388815E-17
  1.3645000E-02   -1.6899820E-16
  1.3680000E-02    2.7019585E-17
  1.3715000E-02    2.3336179E-16
  1.3750000E-02    7.3756049E-17
  1.3785000E-02   -2.7641689E-16
  1.3820000E-02   -2.2649002E-16
  1.3855000E-02    2.6983423E-16
  1.3890000E-02    4.2606877E-16
  1.3925000E-02   -1.7912727E-16
  1.3960000E-02   -6.5077451E-16
  1.3995000E-02   -3.0746651E-17
  1.4030000E-02    8.5712704E-16
  1.4065000E-02    3.8580270E-16
  1.4100000E-02   -9.7756655E-16
  1.4135000E-02   -8.8962049E-16
  1.4170000E-02    9.2355157E-16
  1.4205000E-02    1.5075277E-15
  1.4240000E-02   -5.9670131E-16
  1.4275000E-02   -2.1513980E-15
  1.4310000E-02   -9.0063981E-17
  1.4345000E-02    2.6698540E-15
  1.4380000E-02    1.1811330E-15
  1.4415000E-02   -2.8500647E-15
  1.4450000E-02   -2.6391628E-15
  1.4485000E-02    2.4377856E-15
  1.4520000E-02    4.3047608E-15
  1.4555000E-02   -1.1810614E-15
  1.4590000E-02   -5.8654855E-15
  1.4625000E-02   -1.1005528E-15
  1.4660000E-02    6.8483783E-15
  1.4695000E-02    4.4255472E-15
  1.4730000E-02   -6.6518116E-15
  1.4765000E-02   -8.5515625E-15
  1.4800000E-02    4.6304992E-15
  1.4835000E-02    1.2890529E-14
  1.4870000E-02   -2.4034266E-16
  1.4905000E-02   -1.6468868E-14
  1.4940000E-02   -6.7630414E-15
  1.4975000E-02    1.7968591E-14
  1.5010000E-02    1.6096579E-14
  1.5045000E-02   -1.5882066E-14
  1.5080000E-02   -2.6738313E-14
  1.5115000E-02    8.7998465E-15
  1.5150000E-02    3.6797730E-14
  1.5185000E-02    4.1754019E-15
  1.5220000E-02   -4.3544880E-14
  1.5255000E-02   -2.2933212E-14
  1.5290000E-02    4.3672460E-14
  1.5325000E-02    4.5867264E-14
  1.5360000E-02   -3.3839386E-14
  1.5395000E-02   -6.9526646E-14
  1.5430000E-02    1.1494243E-14
  1.5465000E-02    8.8566775E-14
  1.5500000E-02    2.4099317E-14
  1.5535000E-02   -9.6158243E-14
  1.5570000E-02   -7.0803294E-14
  1.5605000E-02    8.4967081E-14
  1.5640000E-02    1.2276891E-13
  1.5675001E-02   -4.8724357E-14
  1.5710000E-02   -1.7014351E-13
  1.5745001E-02   -1.5744227E-14
  1.5780000E-02    1.9964434E-13
  1.5814999E-02    1.0633573E-13
  1.5850000E-02   -1.9624737E-13
  1.5884999E-02   -2.1381901E-13
  1.5920000E-02    1.4606128E-13
  1.5954999E-02    3.2093151E-13
  1.5990000E-02   -4.0180946E-14
  1.6024999E-02   -4.0306200E-13
  1.6060000E-02   -1.2102240E-13
  1.6094999E-02    4.3103008E-13
  1.6130000E-02    3.2406364E-13
  1.6164999E-02   -3.7615142E-13
  1.6200000E-02   -5.4010469E-13
  1.6235000E-02    2.1727552E-13
  1.6270000E-02    7.2552690E-13
  1.6305000E-02    5.1140956E-14
  1.6340001E-02   -8.2631168E-13
  1.6375000E-02   -4.1150988E-13
  1.6410001E-02    7.8666500E-13
  1.6445000E-02    8.1820352E-13
  1.6480001E-02   -5.6142103E-13
  1.6515000E-02   -1.1974821E-12
  1.6550001E-02    1.3064301E-13
  1.6585000E-02    1.4541238E-12
  1.6620001E-02    4.8632756E-13
  1.6655000E-02   -1.4856378E-12
  1.6690001E-02   -1.2209871E-12
  1.6725000E-02    1.2034000E-12
  1.6759999E-02    1.9538902E-12
  1.6795000E-02   -5.5807594E-13
  1.6829999E-02   -2.5242805E-12
  1.6865000E-02   -4.3530934E-13
  1.6899999E-02    2.7528190E-12
  1.6935000E-02    1.6788154E-12
  1.6969999E-02   -2.4764223E-12
  1.7005000E-02   -2.9862332E-12
  1.7039999E-02    1.5909175E-12
  1.7075000E-02    4.0966128E-12
  1.7109999E-02   -9.3863312E-14
  1.7145000E-02   -4.7095934E-12
  1.7180000E-02   -1.8826635E-12
  1.7215000E-02    4.5410286E-12
  1.7250000E-02    4.0602595E-12
  1.7285001E-02   -3.3920100E-12
  1.7320000E-02   -6.0326744E-12
  1.7355001E-02    1.2189567E-12
  1.7390000E-02    7.3192468E-12
  1.7425001E-02    1.8114940E-12
  1.7460000E-02   -7.4509557E-12
  1.7495001E-02   -5.3001475E-12
  1.7530000E-02    6.0780781E-12
  1.7565001E-02    8.6398727E-12
  1.7600000E-02   -3.0801978E-12
  1.7635001E-02   -1.1094284E-11
  1.7670000E-02   -1.3465800E-12
  1.7704999E-02    1.1926446E-11
  1.7740000E-02    6.6514979E-12
  1.7774999E-02   -1.0560555E-11
  1.7810000E-02   -1.1961428E-11
  1.7844999E-02    6.7473306E-12
  1.7880000E-02    1.6193479E-11
  1.7914999E-02   -6.9573785E-13
  1.7950000E-02   -1.8240982E-11
  1.7984999E-02   -6.8671548E-12
  1.8020000E-02    1.7206946E-11
  1.8054999E-02    1.4738141E-11
  1.8090000E-02   -1.2642119E-11
  1.8124999E-02   -2.1394244E-11
  1.8160000E-02    4.7342265E-12
  1.8195000E-02    2.5251731E-11
  1.8230001E-02    5.6046157E-12
  1.8265000E-02   -2.4989556E-11
  1.8300001E-02   -1.6791802E-11
  1.8335000E-02    1.9876720E-11
  1.8370001E-02    2.6783999E-11
  1.8405000E-02   -1.0030573E-11
  1.8440001E-02   -3.3423018E-11
  1.8475000E-02   -3.4633713E-12
  1.8510001E-02    3.4864073E-11
  1.8545000E-02    1.8619375E-11
  1.8580001E-02   -3.0004176E-11
  1.8615000E-02   -3.2820788E-11
  1.8650001E-02    1.8816891E-11
  1.8685000E-02    4.3260527E-11
  1.8719999E-02   -2.5073739E-12
  1.8755000E-02   -4.7479819E-11
  1.8789999E-02   -1.6568941E-11
  1.8825000E-02    4.3900807E-11
  1.8859999E-02    3.5233663E-11
  1.8895000E-02   -3.2238975E-11
  1.8929999E-02   -5.0015801E-11
  1.8965000E-02    1.3696142E-11
  1.8999999E-02    5.7793190E-11
  1.9035000E-02    9.1261148E-12
  1.9069999E-02   -5.6420823E-11
  1.9105000E-02   -3.2596686E-11
  1.9140000E-02    4.5217226E-11
  1.9175000E-02    5.2653087E-11
  1.9210000E-02   -2.5201237E-11
  1.9245001E-02   -6.5520749E-11
  1.9280000E-02   -9.8060058E-13
  1.9315001E-02    6.8417418E-11
  1.9350000E-02    2.9434566E-11
  1.9385001E-02   -6.0105941E-11
  1.9420000E-02   -5.5645214E-11
  1.9455001E-02    4.1186114E-11
  1.9490000E-02    7.5232612E-11
  1.9525001E-02   -1.4067629E-11
  1.9560000E-02   -8.4703959E-11
  1.9595001E-02   -1.7373205E-11
  1.9630000E-02    8.2063592E-11
  1.9664999E-02    4.8389716E-11
  1.9700000E-02   -6.7176889E-11
  1.9734999E-02   -7.4107560E-11
  1.9770000E-02    4.1831767E-11
  1.9804999E-02    9.0287312E-11
  1.9840000E-02   -9.4964436E-12
  1.9874999E-02   -9.3984612E-11
  1.9910000E-02   -2.5177091E-11
  1.9944999E-02    8.4012151E-11
  1.9980000E-02    5.7019729E-11
  2.0014999E-02   -6.1147115E-11
  2.0050000E-02   -8.1083140E-11
  2.0085000E-02    2.8067012E-11
  2.0120000E-02    9.3352090E-11
  2.0155000E-02    1.0969303E-11
  2.0190001E-02   -9.1348193E-11
  2.0225000E-02   -5.0659209E-11
  2.0260001E-02    7.4554488E-11
  2.0295000E-02    8.5357714E-11
  2.0330001E-02   -4.4603609E-11
  2.0365000E-02   -1.0987478E-10
  2.0400001E-02    5.1840780E-12
  2.0435000E-02    1.2027904E-10
  2.0470001E-02    3.8361269E-11
  2.0505000E-02   -1.1459737E-10
  2.0540001E-02   -7.9736516E-11
  2.0575000E-02    9.3280980E-11
  2.0609999E-02    1.1263018E-10
  2.0645000E-02   -5.9313214E-11
  2.0679999E-02   -1.3175601E-10
  2.0715000E-02    1.7881665E-11
  2.0749999E-02    1.3381030E-10
  2.0785000E-02    2.4381849E-11
  2.0819999E-02   -1.1814118E-10
  2.0855000E-02   -6.0486290E-11
  2.0889999E-02    8.6963263E-11
  2.0925000E-02    8.4295869E-11
  2.0959999E-02   -4.5036617E-11
  2.0995000E-02   -9.1623653E-11
  2.1029999E-02   -1.1441355E-12
  2.1065000E-02    8.0971979E-11
  2.1100000E-02    4.4487195E-11
  2.1135001E-02   -5.3770568E-11
  2.1170000E-02   -7.8531182E-11
  2.1205001E-02    1.4084868E-11
  2.1240000E-02    9.8529220E-11
  2.1275001E-02    3.2127381E-11
  2.1310000E-02   -1.0220139E-10
  2.1345001E-02   -7.8057907E-11
  2.1380000E-02    9.0042841E-11
  2.1415001E-02    1.1719678E-10
  2.1450000E-02   -6.5156595E-11
  2.1485001E-02   -1.4439261E-10
  2.1520000E-02    3.2661481E-11
  2.1555001E-02    1.5666385E-10
  2.1590000E-02    1.2239656E-12
  2.1624999E-02   -1.5363714E-10
  2.1660000E-02   -3.0284580E-11
  2.1694999E-02    1.3752426E-10
  2.1730000E-02    4.9412169E-11
  2.1764999E-02   -1.1261195E-10
  2.1800000E-02   -5.5479541E-11
  2.1834999E-02    8.4364724E-11
  2.1870000E-02    4.7793217E-11
  2.1904999E-02   -5.8351414E-11
  2.1940000E-02   -2.8057041E-11
  2.1974999E-02    3.9231479E-11
  2.2010000E-02   -1.0093581E-13
  2.2045000E-02   -2.9994306E-11
  2.2080000E-02    3.1896884E-11
  2.2115000E-02    3.1567270E-11
  2.2150001E-02   -6.2258372E-11
  2.2185000E-02   -4.2788412E-11
  2.2220001E-02    8.6616894E-11
  2.2255000E-02    6.0622778E-11
  2.2290001E-02   -1.0159328E-10
  2.2325000E-02   -8.0532893E-11
  2.2360001E-02    1.0564889E-10
  2.2395000E-02    9.7079490E-11
  2.2430001E-02   -9.9679515E-11
  2.2465000E-02   -1.0490447E-10
  2.2500001E-02    8.7308216E-11
  2.2535000E-02    1.0008788E-10
  2.2569999E-02   -7.4538146E-11
  2.2605000E-02   -8.1600032E-11
  2.2639999E-02    6.8532610E-11
  2.2675000E-02    5.2341541E-11
  2.2709999E-02   -7.5557074E-11
  2.2745000E-02   -1.9135077E-11
  2.2779999E-02    9.8573850E-11
  2.2815000E-02   -8.7967810E-12
  2.2849999E-02   -1.3546357E-10
  2.2885000E-02    2.2696588E-11
  2.2919999E-02    1.7891752E-10
  2.2955000E-02   -1.7458616E-11
  2.2990000E-02   -2.1837986E-10
  2.3025000E-02   -6.2580748E-12
  2.3060000E-02    2.4340654E-10
  2.3095001E-02    4.1973567E-11
  2.3130000E-02   -2.4711083E-10
  2.3165001E-02   -7.9466003E-11
  2.3200000E-02    2.2831748E-10
  2.3235001E-02    1.0817070E-10
  2.3270000E-02   -1.9153958E-10
  2.3305001E-02   -1.2043097E-10
  2.3340000E-02    1.4489610E-10
  2.3375001E-02    1.1313897E-10
  2.3410000E-02   -9.7252713E-11
  2.3445001E-02   -8.7331919E-11
  2.3480000E-02    5.6228674E-11
  2.3514999E-02    4.6771430E-11
  2.3550000E-02   -2.7637496E-11
  2.3584999E-02    3.1019349E-12
  2.3620000E-02    1.5591277E-11
  2.3654999E-02   -5.5400979E-11
  2.3690000E-02   -2.2253997E-11
  2.3724999E-02    1.0174010E-10
  2.3760000E-02    4.6789985E-11
  2.3794999E-02   -1.3281769E-10
  2.3830000E-02   -8.3740605E-11
  2.3864999E-02    1.4070292E-10
  2.3900000E-02    1.2228799E-10
  2.3934999E-02   -1.2287109E-10
  2.3970000E-02   -1.4863291E-10
  2.4005000E-02    8.5550268E-11
  2.4040001E-02    1.5178581E-10
  2.4075000E-02   -4.3017416E-11
  2.4110001E-02   -1.2973307E-10
  2.4145000E-02    1.2035240E-11
  2.4180001E-02    9.2140129E-11
  2.4215000E-02   -3.6327543E-12
  2.4250001E-02   -5.7292081E-11
  2.4285000E-02    1.6092074E-11
  2.4320001E-02    4.3237917E-11
  2.4355000E-02   -3.3880551E-11
  2.4390001E-02   -5.6830218E-11
  2.4425000E-02    3.5507756E-11
  2.4460001E-02    8.8258997E-11
  2.4495000E-02   -6.3577811E-12
  2.4529999E-02   -1.1559174E-10
  2.4565000E-02   -5.1513474E-11
  2.4599999E-02    1.1713974E-10
  2.4635000E-02    1.1875421E-10
  2.4669999E-02   -8.4771988E-11
  2.4705000E-02   -1.6795189E-10
  2.4739999E-02    3.1664921E-11
  2.4775000E-02    1.8063279E-10
  2.4809999E-02    1.3783510E-11
  2.4845000E-02   -1.6027016E-10
  2.4879999E-02   -2.5233707E-11
  2.4915000E-02    1.3170839E-10
  2.4950000E-02   -3.5944010E-12
  2.4985000E-02   -1.2472871E-10
  2.5020000E-02    5.5541138E-11
  2.5055001E-02    1.5685567E-10
  2.5090000E-02   -9.7503151E-11
  2.5125001E-02   -2.1878305E-10
  2.5160000E-02    1.0224611E-10
  2.5195001E-02    2.7843197E-10
  2.5230000E-02   -6.6409836E-11
  2.5265001E-02   -2.9738287E-10
  2.5300000E-02    2.0440547E-11
  2.5335001E-02    2.6311051E-10
  2.5370000E-02   -3.7177570E-12
  2.5405001E-02   -1.9242634E-10
  2.5440000E-02    4.5744478E-11
  2.5474999E-02    1.2944636E-10
  2.5510000E-02   -1.3813556E-10
  2.5544999E-02   -1.0908226E-10
  2.5580000E-02    2.4949837E-10
  2.5614999E-02    1.4923925E-10
  2.5650000E-02   -3.2465158E-10
  2.5684999E-02   -2.1448761E-10
  2.5720000E-02    3.4571526E-10
  2.5754999E-02    2.6418590E-10
  2.5790000E-02   -3.1744682E-10
  2.5824999E-02   -2.4860877E-10
  2.5860000E-02    3.0204808E-10
  2.5895000E-02    1.8819381E-10
  2.5930000E-02   -3.2533903E-10
  2.5965000E-02   -1.0247513E-10
  2.6000001E-02    4.2597345E-10
  2.6035000E-02    7.7812264E-11
  2.6070001E-02   -5.3587568E-10
  2.6105000E-02   -1.0984152E-10
  2.6140001E-02    6.3028038E-10
  2.6175000E-02    2.2464441E-10
  2.6210001E-02   -6.0205513E-10
  2.6245000E-02   -2.9413436E-10
  2.6280001E-02    5.1963295E-10
  2.6315000E-02    3.2594033E-10
  2.6350001E-02   -3.5096509E-10
  2.6385000E-02   -1.9237753E-10
  2.6419999E-02    2.8784294E-10
  2.6455000E-02    5.0149170E-11
  2.6489999E-02   -2.5270835E-10
  2.6525000E-02    1.7070921E-10
  2.6559999E-02    4.1266643E-10
  2.6595000E-02   -1.9554447E-10
  2.6629999E-02   -4.8206544E-10
  2.6665000E-02    2.3795441E-10
  2.6699999E-02    6.3685779E-10
  2.6735000E-02   -4.8070971E-11
  2.6769999E-02   -4.9676219E-10
  2.6805000E-02    7.5244026E-11
  2.6839999E-02    4.7981619E-10
  2.6875000E-02    5.1699828E-11
  2.6910000E-02   -1.6939643E-10
  2.6945001E-02    2.2524203E-10
  2.6980000E-02    2.5527930E-10