 -4.8000002E-03    1.0000000E-24
 -4.7650002E-03    1.0000002E-24
 -4.7300002E-03    1.0000001E-24
 -4.6950001E-03    1.0000000E-24
 -4.6600001E-03    1.0000003E-24
 -4.6250001E-03    1.0000002E-24
 -4.5900000E-03    1.0000000E-24
 -4.5550000E-03    1.0000002E-24
 -4.5200000E-03    9.9999992E-25
 -4.4849999E-03    1.0000000E-24
 -4.4499999E-03    1.0000002E-24
 -4.4149999E-03    1.0000001E-24
 -4.3799998E-03    9.9999953E-25
 -4.3449998E-03    9.9999992E-25
 -4.3100002E-03    1.0000007E-24
 -4.2750002E-03    1.0000001E-24
 -4.2400002E-03    9.9999982E-25
 -4.2050001E-03    1.0000005E-24
 -4.1700001E-03    1.0000004E-24
 -4.1350001E-03    9.9999943E-25
 -4.1000000E-03    9.9999963E-25
 -4.0650000E-03    1.0000003E-24
 -4.0300000E-03    1.0000000E-24
 -3.9949999E-03    9.9999972E-25
 -3.9599999E-03    1.0000003E-24
 -3.9249999E-03    1.0000005E-24
 -3.8900001E-03    9.9999963E-25
 -3.8550000E-03    9.9999982E-25
 -3.8200000E-03    1.0000004E-24
 -3.7849999E-03    1.0000002E-24
 -3.7499999E-03    9.9999972E-25
 -3.7150001E-03    1.0000004E-24
 -3.6800001E-03    1.0000007E-24
 -3.6450000E-03    9.9999972E-25
 -3.6100000E-03    9.9999953E-25
 -3.5750000E-03    1.0000000E-24
 -3.5399999E-03    9.9999992E-25
 -3.5049999E-03    9.9999982E-25
 -3.4700001E-03    1.0000007E-24
 -3.4350001E-03    1.0000005E-24
 -3.4000000E-03    9.9999992E-25
 -3.3650000E-03    9.9999992E-25
 -3.3300000E-03    1.0000001E-24
 -3.2949999E-03    9.9999963E-25
 -3.2599999E-03    9.9999992E-25
 -3.2250001E-03    1.0000005E-24
 -3.1900001E-03    1.0000004E-24
 -3.1550000E-03    9.9999972E-25
 -3.1200000E-03    9.9999982E-25
 -3.0850000E-03    1.0000004E-24
 -3.0499999E-03    1.0000002E-24
 -3.0149999E-03    9.9999963E-25
 -2.9800001E-03    9.9999992E-25
 -2.9450001E-03    1.0000006E-24
 -2.9100000E-03    1.0000002E-24
 -2.8750000E-03    9.9999953E-25
 -2.8400000E-03    1.0000002E-24
 -2.8049999E-03    1.0000006E-24
 -2.7699999E-03    9.9999992E-25
 -2.7350001E-03    9.9999992E-25
 -2.7000001E-03    1.0000004E-24
 -2.6650000E-03    1.0000003E-24
 -2.6300000E-03    9.9999982E-25
 -2.5950000E-03    1.0000000E-24
 -2.5599999E-03    1.0000002E-24
 -2.5249999E-03    9.9999953E-25
 -2.4900001E-03    9.9999943E-25
 -2.4550001E-03    1.0000005E-24
 -2.4200000E-03    1.0000007E-24
 -2.3850000E-03    1.0000005E-24
 -2.3500000E-03    1.0000000E-24
 -2.3149999E-03    9.9999953E-25
 -2.2799999E-03    9.9999913E-25
 -2.2450001E-03    9.9999943E-25
 -2.2100001E-03    1.0000002E-24
 -2.1750000E-03    1.0000009E-24
 -2.1400000E-03    1.0000007E-24
 -2.1050000E-03    9.9999992E-25
 -2.0699999E-03    1.0000001E-24
 -2.0349999E-03    1.0000007E-24
 -2.0000001E-03    9.9999963E-25
 -1.9650001E-03    9.9999913E-25
 -1.9300000E-03    1.0000004E-24
 -1.8950000E-03    1.0000003E-24
 -1.8600000E-03    9.9999943E-25
 -1.8250000E-03    1.0000000E-24
 -1.7900000E-03    1.0000008E-24
 -1.7550000E-03    1.0000005E-24
 -1.7199999E-03    9.9999972E-25
 -1.6850000E-03    1.0000001E-24
 -1.6500000E-03    1.0000006E-24
 -1.6150000E-03    9.9999953E-25
 -1.5800000E-03    9.9999864E-25
 -1.5450000E-03    9.9999992E-25
 -1.5100000E-03    1.0000009E-24
 -1.4750001E-03    1.0000002E-24
 -1.4400000E-03    1.0000001E-24
 -1.4050000E-03    1.0000006E-24
 -1.3700000E-03    1.0000001E-24
 -1.3350000E-03    1.0000000E-24
 -1.3000000E-03    9.9999982E-25
 -1.2650000E-03    9.9999913E-25
 -1.2300001E-03    9.9999992E-25
 -1.1950000E-03    1.0000010E-24
 -1.1600000E-03    9.9999982E-25
 -1.1250000E-03    9.9999933E-25
 -1.0900000E-03    1.0000009E-24
 -1.0550000E-03    1.0000009E-24
 -1.0200000E-03    9.9999923E-25
 -9.8500005E-04    9.9999884E-25
 -9.5000002E-04    1.0000007E-24
 -9.1499998E-04    1.0000012E-24
 -8.8000001E-04    9.9999943E-25
 -8.4499997E-04    9.9999874E-25
 -8.1000000E-04    1.0000008E-24
 -7.7500002E-04    1.0000010E-24
 -7.3999999E-04    9.9999864E-25
 -7.0500001E-04    9.9999893E-25
 -6.6999998E-04    1.0000011E-24
 -6.3500000E-04    1.0000011E-24
 -6.0000003E-04    9.9999953E-25
 -5.6499999E-04    9.9999963E-25
 -5.3000002E-04    1.0000005E-24
 -4.9499999E-04    1.0000011E-24
 -4.6000001E-04    1.0000004E-24
 -4.2500001E-04    9.9999923E-25
 -3.9000000E-04    9.9999943E-25
 -3.5500000E-04    1.0000002E-24
 -3.1999999E-04    9.9999982E-25
 -2.8499999E-04    9.9999923E-25
 -2.5000001E-04    1.0000004E-24
 -2.1499999E-04    1.0000008E-24
 -1.8000000E-04    9.9999953E-25
 -1.4500000E-04    9.9999923E-25
 -1.1000000E-04    1.0000003E-24
 -7.5000004E-05    1.0000002E-24
 -3.9999999E-05    1.0000003E-24
 -4.9999999E-06    1.0000010E-24
  2.9999999E-05    1.0000000E-24
  6.5000000E-05    9.9999953E-25
  9.9999997E-05    1.0000006E-24
  1.3499999E-04    9.9999982E-25
  1.7000000E-04    9.9999913E-25
  2.0500000E-04    1.0000003E-24
  2.3999999E-04    1.0000001E-24
  2.7500000E-04    9.9999903E-25
  3.1000000E-04    1.0000004E-24
  3.4500001E-04    1.0000005E-24
  3.8000001E-04    9.9999903E-25
  4.1499999E-04    9.9999963E-25
  4.4999999E-04    1.0000013E-24
  4.8500000E-04    1.0000004E-24
  5.2000000E-04    9.9999933E-25
  5.5499998E-04    1.0000011E-24
  5.9000001E-04    1.0000015E-24
  6.2499999E-04    9.9999943E-25
  6.6000002E-04    9.9999864E-25
  6.9500000E-04    1.0000006E-24
  7.3000003E-04    1.0000010E-24
  7.6500000E-04    9.9999953E-25
  7.9999998E-04    9.9999982E-25
  8.3500001E-04    1.0000008E-24
  8.6999999E-04    9.9999963E-25
  9.0500002E-04    9.9999903E-25
  9.4000000E-04    1.0000008E-24
  9.7499997E-04    1.0000009E-24
  1.0100000E-03    9.9999972E-25
  1.0450000E-03    1.0000002E-24
  1.0800000E-03    1.0000004E-24
  1.1150000E-03    9.9999913E-25
  1.1500000E-03    9.9999953E-25
  1.1849999E-03    1.0000009E-24
  1.2200000E-03    1.0000005E-24
  1.2550000E-03    9.9999943E-25
  1.2900000E-03    9.9999972E-25
  1.3250000E-03    1.0000007E-24
  1.3600000E-03    1.0000002E-24
  1.3950000E-03    9.9999933E-25
  1.4299999E-03    9.9999972E-25
  1.4650000E-03    1.0000003E-24
  1.5000000E-03    9.9999933E-25
  1.5350000E-03    9.9999913E-25
  1.5700000E-03    1.0000008E-24
  1.6050000E-03    1.0000011E-24
  1.6400000E-03    9.9999923E-25
  1.6749999E-03    9.9999972E-25
  1.7100000E-03    1.0000013E-24
  1.7450000E-03    1.0000002E-24
  1.7800000E-03    9.9999933E-25
  1.8150000E-03    9.9999992E-25
  1.8500000E-03    9.9999913E-25
  1.8850000E-03    9.9999903E-25
  1.9200000E-03    1.0000012E-24
  1.9550000E-03    1.0000017E-24
  1.9900000E-03    1.0000002E-24
  2.0250001E-03    9.9999992E-25
  2.0600001E-03    1.0000001E-24
  2.0949999E-03    9.9999923E-25
  2.1299999E-03    9.9999923E-25
  2.1650000E-03    9.9999992E-25
  2.2000000E-03    1.0000005E-24
  2.2350000E-03    1.0000012E-24
  2.2700001E-03    1.0000014E-24
  2.3050001E-03    1.0000002E-24
  2.3399999E-03    9.9999903E-25
  2.3749999E-03    9.9999864E-25
  2.4100000E-03    9.9999953E-25
  2.4450000E-03    1.0000002E-24
  2.4800000E-03    1.0000000E-24
  2.5150001E-03    1.0000007E-24
  2.5500001E-03    1.0000017E-24
  2.5849999E-03    9.9999933E-25
  2.6199999E-03    9.9999706E-25
  2.6550000E-03    9.9999992E-25
  2.6900000E-03    1.0000011E-24
  2.7250000E-03    9.9999893E-25
  2.7600001E-03    1.0000009E-24
  2.7950001E-03    1.0000032E-24
  2.8299999E-03    9.9999893E-25
  2.8649999E-03    9.9999864E-25
  2.9000000E-03    1.0000020E-24
  2.9350000E-03    9.9999943E-25
  2.9700000E-03    9.9999726E-25
  3.0050001E-03    1.0000015E-24
  3.0400001E-03    1.0000025E-24
  3.0749999E-03    9.9999864E-25
  3.1099999E-03    9.9999933E-25
  3.1450000E-03    1.0000015E-24
  3.1800000E-03    1.0000000E-24
  3.2150000E-03    9.9999874E-25
  3.2500001E-03    9.9999963E-25
  3.2850001E-03    1.0000006E-24
  3.3199999E-03    1.0000002E-24
  3.3549999E-03    9.9999933E-25
  3.3900000E-03    1.0000011E-24
  3.4250000E-03    1.0000016E-24
  3.4600000E-03    9.9999874E-25
  3.4950001E-03    9.9999963E-25
  3.5300001E-03    1.0000018E-24
  3.5649999E-03    9.9999854E-25
  3.5999999E-03    9.9999864E-25
  3.6350000E-03    1.0000036E-24
  3.6700000E-03    1.0000012E-24
  3.7050000E-03    9.9999716E-25
  3.7400001E-03    1.0000004E-24
  3.7750001E-03    1.0000010E-24
  3.8099999E-03    9.9999716E-25
  3.8449999E-03    9.9999923E-25
  3.8800000E-03    1.0000029E-24
  3.9149998E-03    1.0000011E-24
  3.9499998E-03    9.9999923E-25
  3.9849998E-03    1.0000004E-24
  4.0199999E-03    1.0000012E-24
  4.0549999E-03    9.9999992E-25
  4.0899999E-03    9.9999844E-25
  4.1250000E-03    9.9999884E-25
  4.1600000E-03    1.0000009E-24
  4.1950000E-03    1.0000014E-24
  4.2300001E-03    1.0000006E-24
  4.2650001E-03    9.9999963E-25
  4.3000001E-03    9.9999933E-25
  4.3350002E-03    9.9999943E-25
  4.3700002E-03    9.9999884E-25
  4.4049998E-03    9.9999903E-25
  4.4399998E-03    1.0000020E-24
  4.4749998E-03    1.0000027E-24
  4.5099999E-03    9.9999943E-25
  4.5449999E-03    9.9999913E-25
  4.5799999E-03    1.0000010E-24
  4.6150000E-03    9.9999913E-25
  4.6500000E-03    9.9999824E-25
  4.6850001E-03    1.0000009E-24
  4.7200001E-03    1.0000005E-24
  4.7550001E-03    9.9999933E-25
  4.7900002E-03    1.0000006E-24
  4.8250002E-03    1.0000001E-24
  4.8600002E-03    9.9999893E-25
  4.8949998E-03    1.0000014E-24
  4.9299998E-03    1.0000018E-24
  4.9649999E-03    9.9999884E-25
  4.9999999E-03    9.9999854E-25
  5.0349999E-03    1.0000011E-24
  5.0700000E-03    1.0000005E-24
  5.1050000E-03    9.9999864E-25
  5.1400000E-03    9.9999982E-25
  5.1750001E-03    1.0000008E-24
  5.2100001E-03    9.9999903E-25
  5.2450001E-03    9.9999933E-25
  5.2800002E-03    1.0000015E-24
  5.3150002E-03    1.0000002E-24
  5.3500002E-03    9.9999972E-25
  5.3849998E-03    1.0000020E-24
  5.4199998E-03    1.0000006E-24
  5.4549999E-03    9.9999805E-25
  5.4899999E-03    1.0000004E-24
  5.5249999E-03    1.0000014E-24
  5.5600000E-03    9.9999903E-25
  5.5950000E-03    1.0000008E-24
  5.6300000E-03    1.0000022E-24
  5.6650001E-03    9.9999972E-25
  5.7000001E-03    9.9999884E-25
  5.7350001E-03    9.9999972E-25
  5.7700002E-03    9.9999972E-25
  5.8050002E-03    1.0000003E-24
  5.8400002E-03    1.0000006E-24
  5.8749998E-03    1.0000001E-24
  5.9099998E-03    1.0000000E-24
  5.9449999E-03    9.9999913E-25
  5.9799999E-03    9.9999923E-25
  6.0149999E-03    1.0000013E-24
  6.0500000E-03    1.0000003E-24
  6.0850000E-03    9.9999854E-25
  6.1200000E-03    9.9999992E-25
  6.1550001E-03    1.0000009E-24
  6.1900001E-03    1.0000007E-24
  6.2250001E-03    1.0000003E-24
  6.2600002E-03    9.9999943E-25
  6.2950002E-03    1.0000002E-24
  6.3299998E-03    1.0000015E-24
  6.3649998E-03    9.9999913E-25
  6.3999998E-03    9.9999785E-25
  6.4349999E-03    1.0000014E-24
  6.4699999E-03    1.0000012E-24
  6.5049999E-03    9.9999805E-25
  6.5400000E-03    1.0000002E-24
  6.5750000E-03    1.0000029E-24
  6.6100000E-03    9.9999982E-25
  6.6450001E-03    9.9999696E-25
  6.6800001E-03    9.9999923E-25
  6.7150001E-03    1.0000007E-24
  6.7500002E-03    9.9999864E-25
  6.7850002E-03    9.9999824E-25
  6.8199998E-03    1.0000015E-24
  6.8549998E-03    1.0000025E-24
  6.8899998E-03    1.0000002E-24
  6.9249999E-03    1.0000002E-24
  6.9599999E-03    1.0000011E-24
  6.9949999E-03    9.9999903E-25
  7.0300000E-03    9.9999844E-25
  7.0650000E-03    1.0000002E-24
  7.1000000E-03    1.0000009E-24
  7.1350001E-03    1.0000015E-24
  7.1700001E-03    1.0000017E-24
  7.2050001E-03    9.9999953E-25
  7.2400002E-03    9.9999874E-25
  7.2750002E-03    9.9999972E-25
  7.3099998E-03    9.9999874E-25
  7.3449998E-03    9.9999884E-25
  7.3799998E-03    1.0000018E-24
  7.4149999E-03    1.0000014E-24
  7.4499999E-03    9.9999923E-25
  7.4850000E-03    9.9999933E-25
  7.5200000E-03    9.9999972E-25
  7.5550000E-03    9.9999972E-25
  7.5900001E-03    1.0000006E-24
  7.6250001E-03    9.9999972E-25
  7.6600001E-03    9.9999785E-25
  7.6950002E-03    1.0000016E-24
  7.7300002E-03    1.0000062E-24
  7.7650002E-03    1.0000007E-24
  7.7999998E-03    9.9999164E-25
  7.8349998E-03    9.9999716E-25
  7.8699999E-03    1.0000116E-24
  7.9049999E-03    1.0000056E-24
  7.9399999E-03    9.9998454E-25
  7.9750000E-03    9.9998858E-25
  8.0100000E-03    1.0000213E-24
  8.0450000E-03    1.0000261E-24
  8.0800001E-03    9.9997714E-25
  8.1150001E-03    9.9995358E-25
  8.1500001E-03    1.0000201E-24
  8.1850002E-03    1.0000785E-24
  8.2200002E-03    9.9999124E-25
  8.2550002E-03    9.9987913E-25
  8.2900003E-03    9.9997152E-25
  8.3250003E-03    1.0001647E-24
  8.3600003E-03    1.0000933E-24
  8.3950004E-03    9.9978081E-25
  8.4300004E-03    9.9979245E-25
  8.4650004E-03    1.0002615E-24
  8.5000005E-03    1.0003803E-24
  8.5349996E-03    9.9972796E-25
  8.5699996E-03    9.9934586E-25
  8.6049996E-03    1.0001855E-24
  8.6399997E-03    1.0010452E-24
  8.6749997E-03    1.0000799E-24
  8.7099997E-03    9.9853639E-25
  8.7449998E-03    9.9944939E-25
  8.7799998E-03    1.0019244E-24
  8.8149998E-03    1.0014249E-24
  8.8499999E-03    9.9780778E-25
  8.8849999E-03    9.9716042E-25
  8.9199999E-03    1.0021619E-24
  8.9550000E-03    1.0048752E-24
  8.9900000E-03    9.9854960E-25
  9.0250000E-03    9.9235556E-25
  9.0600001E-03    9.9931006E-25
  9.0950001E-03    1.0110666E-24
  9.1300001E-03    1.0049517E-24
  9.1650002E-03    9.8584204E-25
  9.2000002E-03    9.8778500E-25
  9.2350002E-03    1.0155862E-24
  9.2700003E-03    1.0228508E-24
  9.3050003E-03    9.8530463E-25
  9.3400003E-03    9.6136457E-25
  9.3750004E-03    1.0060465E-24
  9.4100004E-03    1.0575360E-24
  9.4450004E-03    1.0122531E-24
  9.4799995E-03    9.2179363E-25
  9.5149996E-03    9.5312324E-25
  9.5499996E-03    1.0945850E-24
  9.5849996E-03    1.1028769E-24
  9.6199997E-03    9.0432865E-25
  9.6549997E-03    8.1933219E-25
  9.6899997E-03    1.0714263E-24
  9.7249998E-03    1.2848901E-24
  9.7599998E-03    1.0084926E-24
  9.7949998E-03    5.9969033E-25
  9.8299999E-03    8.3408058E-25
  9.8649999E-03    1.5075446E-24
  9.8999999E-03    1.4367645E-24
  9.9350000E-03    4.4058759E-25
  9.9700000E-03    1.6024796E-25
  1.0005000E-02    1.4875383E-24
  1.0040000E-02    2.3752440E-24
  1.0075000E-02    8.2534321E-25
  1.0110000E-02   -1.0207357E-24
  1.0145000E-02    4.9533671E-25
  1.0180000E-02    3.6915495E-24
  1.0215000E-02    2.7341728E-24
  1.0250000E-02   -2.1636415E-24
  1.0285000E-02   -2.6367104E-24
  1.0320000E-02    4.1362817E-24
  1.0355000E-02    7.2959560E-24
  1.0390000E-02   -1.0736645E-24
  1.0425000E-02   -8.6397947E-24
  1.0460000E-02    2.9347516E-25
  1.0495000E-02    1.4306952E-23
  1.0530000E-02    6.9406302E-24
  1.0565000E-02   -1.5505811E-23
  1.0600000E-02   -1.3445626E-23
  1.0635000E-02    1.8795088E-23
  1.0670000E-02    2.7744913E-23
  1.0705000E-02   -1.3941876E-23
  1.0740000E-02   -4.1866606E-23
  1.0775000E-02    5.9918427E-24
  1.0810000E-02    6.2579439E-23
  1.0845000E-02    1.6681521E-23
  1.0880000E-02   -7.8913196E-23
  1.0915000E-02   -4.9872490E-23
  1.0950000E-02    9.3110288E-23
  1.0985000E-02    1.0464482E-22
  1.1020000E-02   -8.8572066E-23
  1.1055000E-02   -1.7459010E-22
  1.1090000E-02    6.0294292E-23
  1.1125000E-02    2.6396889E-22
  1.1160000E-02    1.4635261E-23
  1.1195000E-02   -3.5433645E-22
  1.1230000E-02   -1.4526485E-22
  1.1265000E-02    4.3427118E-22
  1.1300000E-02    3.5726670E-22
  1.1335000E-02   -4.5929870E-22
  1.1370000E-02   -6.4861259E-22
  1.1405000E-02    3.8919749E-22
  1.1440000E-02    1.0198620E-21
  1.1475000E-02   -1.5789690E-22
  1.1510000E-02   -1.4357257E-21
  1.1545000E-02   -3.0479743E-22
  1.1580000E-02    1.8236600E-21
  1.1615000E-02    1.0687664E-21
  1.1650000E-02   -2.0626383E-21
  1.1685000E-02   -2.1765410E-21
  1.1720000E-02    1.9815067E-21
  1.1755000E-02    3.6334765E-21
  1.1790000E-02   -1.3345107E-21
  1.1825000E-02   -5.3310740E-21
  1.1860000E-02   -1.3714688E-22
  1.1895000E-02    7.0459366E-21
  1.1930000E-02    2.7172990E-21
  1.1965000E-02   -8.3777903E-21
  1.2000000E-02   -6.6034971E-21
  1.2035000E-02    8.7135222E-21
  1.2070000E-02    1.1850771E-20
  1.2105000E-02   -7.2307597E-21
  1.2140000E-02   -1.8199314E-20
  1.2175000E-02    2.9737997E-21
  1.2210000E-02    2.4953903E-20
  1.2245000E-02    5.0493443E-21
  1.2280000E-02   -3.0860968E-20
  1.2315000E-02   -1.7651483E-20
  1.2350000E-02    3.3920606E-20
  1.2385000E-02    3.5148685E-20
  1.2420000E-02   -3.1449892E-20
  1.2455000E-02   -5.6957835E-20
  1.2490000E-02    2.0297970E-20
  1.2525000E-02    8.1175376E-20
  1.2560000E-02    3.0347508E-21
  1.2595000E-02   -1.0384853E-19
  1.2630000E-02   -4.1307826E-20
  1.2665000E-02    1.1914143E-19
  1.2700000E-02    9.6013962E-20
  1.2735000E-02   -1.1877199E-19
  1.2770000E-02   -1.6584231E-19
  1.2805000E-02    9.2719941E-20
  1.2840000E-02    2.4572656E-19
  1.2875000E-02   -2.9999983E-20
  1.2910000E-02   -3.2454972E-19
  1.2945000E-02   -7.8699747E-20
  1.2980000E-02    3.8442640E-19
  1.3015000E-02    2.3834162E-19
  1.3050000E-02   -4.0283667E-19
  1.3085000E-02   -4.4746330E-19
  1.3120000E-02    3.4915232E-19
  1.3155000E-02    6.9067746E-19
  1.3190000E-02   -1.9227560E-19
  1.3225000E-02   -9.4034854E-19
  1.3260000E-02   -9.5348185E-20
  1.3295000E-02    1.1485874E-18
  1.3330000E-02    5.3285615E-19
  1.3365000E-02   -1.2490813E-18
  1.3400000E-02   -1.1180259E-18
  1.3435000E-02    1.1568152E-18
  1.3470000E-02    1.8137155E-18
  1.3505000E-02   -7.8812151E-19
  1.3540000E-02   -2.5452860E-18
  1.3575000E-02    6.1113777E-20
  1.3610000E-02    3.1880511E-18
  1.3645000E-02    1.0740155E-18
  1.3680000E-02   -3.5676726E-18
  1.3715000E-02   -2.6157078E-18
  1.3750000E-02    3.4683799E-18
  1.3785000E-02    4.4803638E-18
  1.3820000E-02   -2.6521880E-18
  1.3855000E-02   -6.4817695E-18
  1.3890000E-02    9.0952830E-19
  1.3925000E-02    8.2879949E-18
  1.3960000E-02    1.8830452E-18
  1.3995000E-02   -9.4806975E-18
  1.4030000E-02   -5.7400561E-18
  1.4065000E-02    9.5043880E-18
  1.4100000E-02    1.0460507E-17
  1.4135000E-02   -7.7775607E-18
  1.4170000E-02   -1.5558591E-17
  1.4205000E-02    3.7994651E-18
  1.4240000E-02    2.0256267E-17
  1.4275000E-02    2.7436268E-18
  1.4310000E-02   -2.3564994E-17
  1.4345000E-02   -1.1932405E-17
  1.4380000E-02    2.4092889E-17
  1.4415000E-02    2.3162381E-17
  1.4450000E-02   -2.0540767E-17
  1.4485000E-02   -3.5339859E-17
  1.4520000E-02    1.1710149E-17
  1.4555000E-02    4.6674225E-17
  1.4590000E-02    3.1293115E-18
  1.4625000E-02   -5.4704405E-17
  1.4660000E-02   -2.3868077E-17
  1.4695000E-02    5.6453945E-17
  1.4730000E-02    4.9108694E-17
  1.4765000E-02   -4.9004744E-17
  1.4800000E-02   -7.6262433E-17
  1.4835000E-02    2.9801455E-17
  1.4870000E-02    1.0123504E-16
  1.4905000E-02    2.4747850E-18
  1.4940000E-02   -1.1861321E-16
  1.4975000E-02   -4.7128778E-17
  1.5010000E-02    1.2203562E-16
  1.5045000E-02    1.0067431E-16
  1.5080000E-02   -1.0569701E-16
  1.5115000E-02   -1.5727479E-16
  1.5150000E-02    6.4472773E-17
  1.5185000E-02    2.0734088E-16
  1.5220000E-02    3.0467996E-18
  1.5255000E-02   -2.3984659E-16
  1.5290000E-02   -9.4062592E-17
  1.5325000E-02    2.4228769E-16
  1.5360000E-02    2.0050548E-16
  1.5395000E-02   -2.0332684E-16
  1.5430000E-02   -3.0809971E-16
  1.5465000E-02    1.1581246E-16
  1.5500000E-02    3.9734043E-16
  1.5535000E-02    2.0492837E-17
  1.5570000E-02   -4.4583415E-16
  1.5605000E-02   -1.9636734E-16
  1.5640000E-02    4.3089582E-16
  1.5675001E-02    3.9032109E-16
  1.5710000E-02   -3.3648053E-16
  1.5745001E-02   -5.7337349E-16
  1.5780000E-02    1.5331009E-16
  1.5814999E-02    7.0619694E-16
  1.5850000E-02    1.1056606E-16
  1.5884999E-02   -7.4695500E-16
  1.5920000E-02   -4.2542381E-16
  1.5954999E-02    6.6220591E-16
  1.5990000E-02    7.4550160E-16
  1.6024999E-02   -4.3025695E-16
  1.6060000E-02   -1.0065119E-15
  1.6094999E-02    5.6218894E-17
  1.6130000E-02    1.1407055E-15
  1.6164999E-02    4.2531052E-16
  1.6200000E-02   -1.0781709E-15
  1.6235000E-02   -9.4033416E-16
  1.6270000E-02    7.7882652E-16
  1.6305000E-02    1.3889751E-15
  1.6340001E-02   -2.3371772E-16
  1.6375000E-02   -1.6472861E-15
  1.6410001E-02   -5.0193034E-16
  1.6445000E-02    1.6023797E-15
  1.6480001E-02    1.3201659E-15
  1.6515000E-02   -1.1672800E-15
  1.6550001E-02   -2.0494830E-15
  1.6585000E-02    3.2534549E-16
  1.6620001E-02    2.4935526E-15
  1.6655000E-02    8.6446986E-16
  1.6690001E-02   -2.4384120E-15
  1.6725000E-02   -2.2240330E-15
  1.6759999E-02    1.7229762E-15
  1.6795000E-02    3.4746763E-15
  1.6829999E-02   -2.9521565E-16
  1.6865000E-02   -4.2710429E-15
  1.6899999E-02   -1.7619590E-15
  1.6935000E-02    4.2377808E-15
  1.6969999E-02    4.1727486E-15
  1.7005000E-02   -3.0758477E-15
  1.7039999E-02   -6.4897835E-15
  1.7075000E-02    6.3078385E-16
  1.7109999E-02    8.1128180E-15
  1.7145000E-02    3.0022219E-15
  1.7180000E-02   -8.3839550E-15
  1.7215000E-02   -7.4094859E-15
  1.7250000E-02    6.7360714E-15
  1.7285001E-02    1.1876884E-14
  1.7320000E-02   -2.8154579E-15
  1.7355001E-02   -1.5422029E-14
  1.7390000E-02   -3.3473724E-15
  1.7425001E-02    1.6899391E-14
  1.7460000E-02    1.1206485E-14
  1.7495001E-02   -1.5257572E-14
  1.7530000E-02   -1.9688434E-14
  1.7565001E-02    9.7176533E-15
  1.7600000E-02    2.7194623E-14
  1.7635001E-02   -1.1298137E-16
  1.7670000E-02   -3.1854107E-14
  1.7704999E-02   -1.2944946E-14
  1.7740000E-02    3.1806683E-14
  1.7774999E-02    2.7973372E-14
  1.7810000E-02   -2.5542285E-14
  1.7844999E-02   -4.2630528E-14
  1.7880000E-02    1.2361935E-14
  1.7914999E-02    5.3977114E-14
  1.7950000E-02    7.2781374E-15
  1.7984999E-02   -5.8902197E-14
  1.8020000E-02   -3.1541386E-14
  1.8054999E-02    5.4708527E-14
  1.8090000E-02    5.7293356E-14
  1.8124999E-02   -3.9636991E-14
  1.8160000E-02   -8.0194518E-14
  1.8195000E-02    1.3637165E-14
  1.8230001E-02    9.5474050E-14
  1.8265000E-02    2.1394726E-14
  1.8300001E-02   -9.8705908E-14
  1.8335000E-02   -6.1602551E-14
  1.8370001E-02    8.6507604E-14
  1.8405000E-02    1.0132664E-13
  1.8440001E-02   -5.7490640E-14
  1.8475000E-02   -1.3372284E-13
  1.8510001E-02    1.3060586E-14
  1.8545000E-02    1.5199798E-13
  1.8580001E-02    4.2565926E-14
  1.8615000E-02   -1.5051739E-13
  1.8650001E-02   -1.0259628E-13
  1.8685000E-02    1.2585050E-13
  1.8719999E-02    1.5821186E-13
  1.8755000E-02   -7.7961339E-14
  1.8789999E-02   -2.0001240E-13
  1.8825000E-02    1.0523199E-14
  1.8859999E-02    2.1935100E-13
  1.8895000E-02    6.9060378E-14
  1.8929999E-02   -2.1004150E-13
  1.8965000E-02   -1.5047752E-13
  1.8999999E-02    1.6959379E-13
  1.9035000E-02    2.2183347E-13
  1.9069999E-02   -1.0012627E-13
  1.9105000E-02   -2.7141009E-13
  1.9140000E-02    8.3874981E-15
  1.9175000E-02    2.8940321E-13
  1.9210000E-02    9.4494210E-14
  1.9245001E-02   -2.7010057E-13
  1.9280000E-02   -1.9476239E-13
  1.9315001E-02    2.1290460E-13
  1.9350000E-02    2.7777016E-13
  1.9385001E-02   -1.2299534E-13
  1.9420000E-02   -3.3030862E-13
  1.9455001E-02    1.0964893E-14
  1.9490000E-02    3.4278570E-13
  1.9525001E-02    1.0841688E-13
  1.9560000E-02   -3.1107934E-13
  1.9595001E-02   -2.1813195E-13
  1.9630000E-02    2.3776304E-13
  1.9664999E-02    3.0151221E-13
  1.9700000E-02   -1.3247675E-13
  1.9734999E-02   -3.4541161E-13
  1.9770000E-02    1.0376121E-14
  1.9804999E-02    3.4228431E-13
  1.9840000E-02    1.0944018E-13
  1.9874999E-02   -2.9253395E-13
  1.9910000E-02   -2.0754104E-13
  1.9944999E-02    2.0487395E-13
  1.9980000E-02    2.6737011E-13
  2.0014999E-02   -9.5896862E-14
  2.0050000E-02   -2.7936908E-13
  2.0085000E-02   -1.3018887E-14
  2.0120000E-02    2.4307246E-13
  2.0155000E-02    9.9013930E-14
  2.0190001E-02   -1.6899986E-13
  2.0225000E-02   -1.4321198E-13
  2.0260001E-02    7.7239478E-14
  2.0295000E-02    1.3523926E-13
  2.0330001E-02    5.5011842E-15
  2.0365000E-02   -7.7409250E-14
  2.0400001E-02   -5.1729505E-14
  2.0435000E-02   -1.3961210E-14
  2.0470001E-02    3.9885890E-14
  2.0505000E-02    1.1000493E-13
  2.0540001E-02    3.8750677E-14
  2.0575000E-02   -1.7469282E-13
  2.0609999E-02   -1.7554429E-13
  2.0645000E-02    1.7241043E-13
  2.0679999E-02    3.4248960E-13
  2.0715000E-02   -7.8206986E-14
  2.0749999E-02   -4.9616686E-13
  2.0785000E-02   -1.1399308E-13
  2.0819999E-02    5.8506157E-13
  2.0855000E-02    3.8499255E-13
  2.0889999E-02   -5.6189661E-13
  2.0925000E-02   -6.9052885E-13
  2.0959999E-02    3.9601918E-13
  2.0995000E-02    9.6690613E-13
  2.1029999E-02   -8.4651748E-14
  2.1065000E-02   -1.1430630E-12
  2.1100000E-02   -3.4104043E-13
  2.1135001E-02    1.1568046E-12
  2.1170000E-02    8.1789252E-13
  2.1205001E-02   -9.7119686E-13
  2.1240000E-02   -1.2612060E-12
  2.1275001E-02    5.8630412E-13
  2.1310000E-02    1.5812265E-12
  2.1345001E-02   -4.3739819E-14
  2.1380000E-02   -1.7029826E-12
  2.1415001E-02   -5.7864407E-13
  2.1450000E-02    1.5842942E-12
  2.1485001E-02    1.1810278E-12
  2.1520000E-02   -1.2279795E-12
  2.1555001E-02   -1.6638983E-12
  2.1590000E-02    6.8173950E-13
  2.1624999E-02    1.9496022E-12
  2.1660000E-02   -2.7350553E-14
  2.1694999E-02   -1.9985214E-12
  2.1730000E-02   -6.3838670E-13
  2.1764999E-02    1.8150248E-12
  2.1800000E-02    1.2249242E-12
  2.1834999E-02   -1.4435910E-12
  2.1870000E-02   -1.6682036E-12
  2.1904999E-02    9.5352610E-13
  2.1940000E-02    1.9430642E-12
  2.1974999E-02   -4.1484768E-13
  2.2010000E-02   -2.0588440E-12
  2.2045000E-02   -1.2075918E-13
  2.2080000E-02    2.0436673E-12
  2.2115000E-02    6.2635823E-13
  2.2150001E-02   -1.9288100E-12
  2.2185000E-02   -1.0993562E-12
  2.2220001E-02    1.7326717E-12
  2.2255000E-02    1.5524191E-12
  2.2290001E-02   -1.4470439E-12
  2.2325000E-02   -1.9912386E-12
  2.2360001E-02    1.0390626E-12
  2.2395000E-02    2.3902007E-12
  2.2430001E-02   -4.7522891E-13
  2.2465000E-02   -2.6867336E-12
  2.2500001E-02   -2.4975698E-13
  2.2535000E-02    2.7983171E-12
  2.2569999E-02    1.1010076E-12
  2.2605000E-02   -2.6398926E-12
  2.2639999E-02   -1.9956226E-12
  2.2675000E-02    2.1449765E-12
  2.2709999E-02    2.7965820E-12
  2.2745000E-02   -1.3065249E-12
  2.2779999E-02   -3.3390632E-12
  2.2815000E-02    2.0721493E-13
  2.2849999E-02    3.4885853E-12
  2.2885000E-02    9.9770398E-13
  2.2919999E-02   -3.1814297E-12
  2.2955000E-02   -2.1213619E-12
  2.2990000E-02    2.4311881E-12
  2.3025000E-02    2.9711843E-12
  2.3060000E-02   -1.3390095E-12
  2.3095001E-02   -3.3841005E-12
  2.3130000E-02    1.0090775E-13
  2.3165001E-02    3.2953800E-12
  2.3200000E-02    1.0480733E-12
  2.3235001E-02   -2.7699390E-12
  2.3270000E-02   -1.9227523E-12
  2.3305001E-02    1.9530486E-12
  2.3340000E-02    2.4159407E-12
  2.3375001E-02   -1.0240756E-12
  2.3410000E-02   -2.4923152E-12
  2.3445001E-02    1.8847174E-13
  2.3480000E-02    2.2207002E-12
  2.3514999E-02    3.7383304E-13
  2.3550000E-02   -1.7860763E-12
  2.3584999E-02   -6.0769207E-13
  2.3620000E-02    1.3917208E-12
  2.3654999E-02    5.8732278E-13
  2.3690000E-02   -1.1621297E-12
  2.3724999E-02   -4.2646358E-13
  2.3760000E-02    1.1620869E-12
  2.3794999E-02    2.5643357E-13
  2.3830000E-02   -1.4141208E-12
  2.3864999E-02   -2.5419077E-13
  2.3900000E-02    1.8237621E-12
  2.3934999E-02    5.5703700E-13
  2.3970000E-02   -2.1818153E-12
  2.4005000E-02   -1.1487948E-12
  2.4040001E-02    2.3059918E-12
  2.4075000E-02    1.9096942E-12
  2.4110001E-02   -2.1042825E-12
  2.4145000E-02   -2.7166845E-12
  2.4180001E-02    1.5045385E-12
  2.4215000E-02    3.4022880E-12
  2.4250001E-02   -4.7657196E-13
  2.4285000E-02   -3.7235224E-12
  2.4320001E-02   -8.5914267E-13
  2.4355000E-02    3.4877624E-12
  2.4390001E-02    2.2688975E-12
  2.4425000E-02   -2.6297107E-12
  2.4460001E-02   -3.5158074E-12
  2.4495000E-02    1.1477340E-12
  2.4529999E-02    4.3338961E-12
  2.4565000E-02    8.7457244E-13
  2.4599999E-02   -4.4084627E-12
  2.4635000E-02   -3.1539467E-12
  2.4669999E-02    3.5317988E-12
  2.4705000E-02    5.2617320E-12
  2.4739999E-02   -1.6971710E-12
  2.4775000E-02   -6.7419846E-12
  2.4809999E-02   -9.2208207E-13
  2.4845000E-02    7.1301754E-12
  2.4879999E-02    3.8989870E-12
  2.4915000E-02   -6.0670644E-12
  2.4950000E-02   -6.4895541E-12
  2.4985000E-02    3.6016520E-12
  2.5020000E-02    7.9129715E-12
  2.5055001E-02   -2.2004935E-13
  2.5090000E-02   -7.6163876E-12
  2.5125001E-02   -3.3207167E-12
  2.5160000E-02    5.3258908E-12
  2.5195001E-02    6.0145487E-12
  2.5230000E-02   -1.2285948E-12
  2.5265001E-02   -6.7216137E-12
  2.5300000E-02   -3.6845136E-12
  2.5335001E-02    4.8410997E-12
  2.5370000E-02    7.9831497E-12
  2.5405001E-02   -6.4220162E-13
  2.5440000E-02   -1.0447774E-11
  2.5474999E-02   -5.0550037E-12
  2.5510000E-02    1.0194923E-11
  2.5544999E-02    1.1032605E-11
  2.5580000E-02   -6.6521641E-12
  2.5614999E-02   -1.5354653E-11
  2.5650000E-02    4.4724009E-13
  2.5684999E-02    1.6224310E-11
  2.5720000E-02    6.4561672E-12
  2.5754999E-02   -1.3188869E-11
  2.5790000E-02   -1.1949057E-11
  2.5824999E-02    7.0230198E-12
  2.5860000E-02    1.4643798E-11
  2.5895000E-02    1.2573847E-12
  2.5930000E-02   -1.3190542E-11
  2.5965000E-02   -9.7424820E-12
  2.6000001E-02    6.9142925E-12
  2.6035000E-02    1.5513500E-11
  2.6070001E-02    2.8210702E-12
  2.6105000E-02   -1.6373757E-11
  2.6140001E-02   -1.3025256E-11
  2.6175000E-02    1.2385022E-11
  2.6210001E-02    2.1388804E-11
  2.6245000E-02   -4.4111572E-12
  2.6280001E-02   -2.6061334E-11
  2.6315000E-02   -6.1841691E-12
  2.6350001E-02    2.5212500E-11
  2.6385000E-02    1.6616711E-11
  2.6419999E-02   -1.8344451E-11
  2.6455000E-02   -2.3135684E-11
  2.6489999E-02    7.8733018E-12
  2.6525000E-02    2.4033544E-11
  2.6559999E-02    3.2282258E-12
  2.6595000E-02   -1.9306239E-11
  2.6629999E-02   -1.2473443E-11
  2.6665000E-02    9.6877792E-12
  2.6699999E-02    1.7440861E-11
  2.6735000E-02    2.9956163E-12
  2.6769999E-02   -1.5947254E-11
  2.6805000E-02   -1.4721249E-11
  2.6839999E-02    8.9270405E-12
  2.6875000E-02    2.2547117E-11
  2.6910000E-02    1.0892127E-12
  2.6945001E-02   -2.5440514E-11
  2.6980000E-02   -1.1703364E-11