 -4.8000002E-03    1.0000000E-24
 -4.7650002E-03    1.0000002E-24
 -4.7300002E-03    1.0000001E-24
 -4.6950001E-03    1.0000000E-24
 -4.6600001E-03    1.0000001E-24
 -4.6250001E-03    1.0000002E-24
 -4.5900000E-03    1.0000002E-24
 -4.5550000E-03    1.0000000E-24
 -4.5200000E-03    9.9999982E-25
 -4.4849999E-03    1.0000002E-24
 -4.4499999E-03    1.0000001E-24
 -4.4149999E-03    9.9999982E-25
 -4.3799998E-03    9.9999992E-25
 -4.3449998E-03    1.0000005E-24
 -4.3100002E-03    1.0000005E-24
 -4.2750002E-03    1.0000000E-24
 -4.2400002E-03    9.9999982E-25
 -4.2050001E-03    1.0000000E-24
 -4.1700001E-03    1.0000001E-24
 -4.1350001E-03    9.9999982E-25
 -4.1000000E-03    1.0000000E-24
 -4.0650000E-03    1.0000001E-24
 -4.0300000E-03    1.0000000E-24
 -3.9949999E-03    9.9999992E-25
 -3.9599999E-03    9.9999972E-25
 -3.9249999E-03    9.9999982E-25
 -3.8900001E-03    1.0000002E-24
 -3.8550000E-03    1.0000003E-24
 -3.8200000E-03    1.0000002E-24
 -3.7849999E-03    1.0000003E-24
 -3.7499999E-03    1.0000001E-24
 -3.7150001E-03    9.9999992E-25
 -3.6800001E-03    1.0000003E-24
 -3.6450000E-03    1.0000001E-24
 -3.6100000E-03    9.9999982E-25
 -3.5750000E-03    1.0000001E-24
 -3.5399999E-03    1.0000002E-24
 -3.5049999E-03    9.9999963E-25
 -3.4700001E-03    1.0000002E-24
 -3.4350001E-03    1.0000005E-24
 -3.4000000E-03    9.9999953E-25
 -3.3650000E-03    9.9999963E-25
 -3.3300000E-03    1.0000006E-24
 -3.2949999E-03    1.0000002E-24
 -3.2599999E-03    9.9999963E-25
 -3.2250001E-03    1.0000002E-24
 -3.1900001E-03    1.0000010E-24
 -3.1550000E-03    9.9999953E-25
 -3.1200000E-03    9.9999923E-25
 -3.0850000E-03    1.0000009E-24
 -3.0499999E-03    1.0000014E-24
 -3.0149999E-03    9.9999913E-25
 -2.9800001E-03    9.9999884E-25
 -2.9450001E-03    1.0000012E-24
 -2.9100000E-03    1.0000007E-24
 -2.8750000E-03    9.9999854E-25
 -2.8400000E-03    1.0000002E-24
 -2.8049999E-03    1.0000017E-24
 -2.7699999E-03    9.9999972E-25
 -2.7350001E-03    9.9999884E-25
 -2.7000001E-03    1.0000008E-24
 -2.6650000E-03    1.0000015E-24
 -2.6300000E-03    9.9999963E-25
 -2.5950000E-03    9.9999933E-25
 -2.5599999E-03    1.0000003E-24
 -2.5249999E-03    9.9999963E-25
 -2.4900001E-03    9.9999943E-25
 -2.4550001E-03    1.0000004E-24
 -2.4200000E-03    1.0000009E-24
 -2.3850000E-03    1.0000001E-24
 -2.3500000E-03    9.9999943E-25
 -2.3149999E-03    9.9999963E-25
 -2.2799999E-03    9.9999982E-25
 -2.2450001E-03    1.0000000E-24
 -2.2100001E-03    1.0000003E-24
 -2.1750000E-03    1.0000002E-24
 -2.1400000E-03    1.0000002E-24
 -2.1050000E-03    1.0000003E-24
 -2.0699999E-03    1.0000009E-24
 -2.0349999E-03    1.0000004E-24
 -2.0000001E-03    9.9999982E-25
 -1.9650001E-03    9.9999992E-25
 -1.9300000E-03    9.9999963E-25
 -1.8950000E-03    9.9999933E-25
 -1.8600000E-03    1.0000003E-24
 -1.8250000E-03    1.0000008E-24
 -1.7900000E-03    1.0000003E-24
 -1.7550000E-03    9.9999943E-25
 -1.7199999E-03    9.9999933E-25
 -1.6850000E-03    1.0000000E-24
 -1.6500000E-03    1.0000001E-24
 -1.6150000E-03    9.9999972E-25
 -1.5800000E-03    1.0000003E-24
 -1.5450000E-03    1.0000009E-24
 -1.5100000E-03    1.0000003E-24
 -1.4750001E-03    1.0000004E-24
 -1.4400000E-03    9.9999982E-25
 -1.4050000E-03    9.9999953E-25
 -1.3700000E-03    1.0000008E-24
 -1.3350000E-03    9.9999992E-25
 -1.3000000E-03    9.9999815E-25
 -1.2650000E-03    9.9999923E-25
 -1.2300001E-03    1.0000007E-24
 -1.1950000E-03    1.0000003E-24
 -1.1600000E-03    1.0000002E-24
 -1.1250000E-03    1.0000011E-24
 -1.0900000E-03    1.0000008E-24
 -1.0550000E-03    9.9999982E-25
 -1.0200000E-03    9.9999972E-25
 -9.8500005E-04    9.9999923E-25
 -9.5000002E-04    9.9999963E-25
 -9.1499998E-04    1.0000010E-24
 -8.8000001E-04    1.0000002E-24
 -8.4499997E-04    9.9999884E-25
 -8.1000000E-04    1.0000005E-24
 -7.7500002E-04    1.0000011E-24
 -7.3999999E-04    9.9999893E-25
 -7.0500001E-04    9.9999903E-25
 -6.6999998E-04    1.0000013E-24
 -6.3500000E-04    1.0000011E-24
 -6.0000003E-04    9.9999953E-25
 -5.6499999E-04    1.0000000E-24
 -5.3000002E-04    1.0000002E-24
 -4.9499999E-04    9.9999982E-25
 -4.6000001E-04    9.9999992E-25
 -4.2500001E-04    1.0000006E-24
 -3.9000000E-04    1.0000001E-24
 -3.5500000E-04    9.9999963E-25
 -3.1999999E-04    9.9999963E-25
 -2.8499999E-04    9.9999982E-25
 -2.5000001E-04    1.0000002E-24
 -2.1499999E-04    1.0000004E-24
 -1.8000000E-04    1.0000001E-24
 -1.4500000E-04    1.0000000E-24
 -1.1000000E-04    1.0000005E-24
 -7.5000004E-05    1.0000006E-24
 -3.9999999E-05    9.9999943E-25
 -4.9999999E-06    9.9999884E-25
  2.9999999E-05    1.0000002E-24
  6.5000000E-05    1.0000006E-24
  9.9999997E-05    9.9999982E-25
  1.3499999E-04    1.0000007E-24
  1.7000000E-04    1.0000011E-24
  2.0500000E-04    9.9999953E-25
  2.3999999E-04    9.9999884E-25
  2.7500000E-04    9.9999963E-25
  3.1000000E-04    1.0000000E-24
  3.4500001E-04    1.0000002E-24
  3.8000001E-04    1.0000005E-24
  4.1499999E-04    1.0000004E-24
  4.4999999E-04    1.0000000E-24
  4.8500000E-04    1.0000001E-24
  5.2000000E-04    1.0000000E-24
  5.5499998E-04    9.9999982E-25
  5.9000001E-04    1.0000006E-24
  6.2499999E-04    1.0000010E-24
  6.6000002E-04    1.0000000E-24
  6.9500000E-04    9.9999913E-25
  7.3000003E-04    1.0000002E-24
  7.6500000E-04    9.9999982E-25
  7.9999998E-04    9.9999844E-25
  8.3500001E-04    1.0000002E-24
  8.6999999E-04    1.0000029E-24
  9.0500002E-04    1.0000007E-24
  9.4000000E-04    9.9999805E-25
  9.7499997E-04    9.9999982E-25
  1.0100000E-03    1.0000010E-24
  1.0450000E-03    9.9999834E-25
  1.0800000E-03    9.9999765E-25
  1.1150000E-03    1.0000016E-24
  1.1500000E-03    1.0000026E-24
  1.1849999E-03    1.0000001E-24
  1.2200000E-03    9.9999963E-25
  1.2550000E-03    1.0000004E-24
  1.2900000E-03    1.0000001E-24
  1.3250000E-03    9.9999982E-25
  1.3600000E-03    9.9999943E-25
  1.3950000E-03    9.9999893E-25
  1.4299999E-03    1.0000002E-24
  1.4650000E-03    1.0000019E-24
  1.5000000E-03    1.0000002E-24
  1.5350000E-03    9.9999864E-25
  1.5700000E-03    1.0000012E-24
  1.6050000E-03    1.0000017E-24
  1.6400000E-03    9.9999805E-25
  1.6749999E-03    9.9999864E-25
  1.7100000E-03    1.0000022E-24
  1.7450000E-03    1.0000006E-24
  1.7800000E-03    9.9999834E-25
  1.8150000E-03    1.0000007E-24
  1.8500000E-03    1.0000016E-24
  1.8850000E-03    9.9999903E-25
  1.9200000E-03    9.9999933E-25
  1.9550000E-03    1.0000018E-24
  1.9900000E-03    1.0000006E-24
  2.0250001E-03    9.9999834E-25
  2.0600001E-03    1.0000001E-24
  2.0949999E-03    1.0000019E-24
  2.1299999E-03    1.0000000E-24
  2.1650000E-03    9.9999844E-25
  2.2000000E-03    1.0000002E-24
  2.2350000E-03    1.0000021E-24
  2.2700001E-03    1.0000006E-24
  2.3050001E-03    9.9999874E-25
  2.3399999E-03    9.9999903E-25
  2.3749999E-03    1.0000007E-24
  2.4100000E-03    1.0000006E-24
  2.4450000E-03    9.9999992E-25
  2.4800000E-03    1.0000005E-24
  2.5150001E-03    1.0000013E-24
  2.5500001E-03    9.9999953E-25
  2.5849999E-03    9.9999775E-25
  2.6199999E-03    9.9999963E-25
  2.6550000E-03    1.0000018E-24
  2.6900000E-03    1.0000001E-24
  2.7250000E-03    9.9999844E-25
  2.7600001E-03    1.0000005E-24
  2.7950001E-03    1.0000022E-24
  2.8299999E-03    9.9999933E-25
  2.8649999E-03    9.9999795E-25
  2.9000000E-03    1.0000011E-24
  2.9350000E-03    1.0000021E-24
  2.9700000E-03    9.9999933E-25
  3.0050001E-03    9.9999893E-25
  3.0400001E-03    1.0000006E-24
  3.0749999E-03    1.0000000E-24
  3.1099999E-03    9.9999874E-25
  3.1450000E-03    9.9999953E-25
  3.1800000E-03    1.0000012E-24
  3.2150000E-03    1.0000020E-24
  3.2500001E-03    1.0000003E-24
  3.2850001E-03    9.9999913E-25
  3.3199999E-03    1.0000006E-24
  3.3549999E-03    1.0000013E-24
  3.3900000E-03    9.9999864E-25
  3.4250000E-03    9.9999755E-25
  3.4600000E-03    1.0000005E-24
  3.4950001E-03    1.0000023E-24
  3.5300001E-03    9.9999982E-25
  3.5649999E-03    9.9999884E-25
  3.5999999E-03    1.0000008E-24
  3.6350000E-03    1.0000011E-24
  3.6700000E-03    9.9999903E-25
  3.7050000E-03    9.9999844E-25
  3.7400001E-03    1.0000000E-24
  3.7750001E-03    1.0000010E-24
  3.8099999E-03    1.0000002E-24
  3.8449999E-03    9.9999943E-25
  3.8800000E-03    1.0000008E-24
  3.9149998E-03    1.0000007E-24
  3.9499998E-03    9.9999844E-25
  3.9849998E-03    9.9999913E-25
  4.0199999E-03    1.0000021E-24
  4.0549999E-03    1.0000015E-24
  4.0899999E-03    9.9999982E-25
  4.1250000E-03    1.0000003E-24
  4.1600000E-03    1.0000008E-24
  4.1950000E-03    9.9999963E-25
  4.2300001E-03    9.9999874E-25
  4.2650001E-03    9.9999943E-25
  4.3000001E-03    1.0000006E-24
  4.3350002E-03    1.0000011E-24
  4.3700002E-03    1.0000004E-24
  4.4049998E-03    9.9999943E-25
  4.4399998E-03    9.9999953E-25
  4.4749998E-03    1.0000003E-24
  4.5099999E-03    9.9999972E-25
  4.5449999E-03    9.9999864E-25
  4.5799999E-03    1.0000003E-24
  4.6150000E-03    1.0000025E-24
  4.6500000E-03    1.0000008E-24
  4.6850001E-03    9.9999903E-25
  4.7200001E-03    1.0000006E-24
  4.7550001E-03    1.0000010E-24
  4.7900002E-03    9.9999874E-25
  4.8250002E-03    9.9999903E-25
  4.8600002E-03    1.0000015E-24
  4.8949998E-03    1.0000016E-24
  4.9299998E-03    9.9999963E-25
  4.9649999E-03    9.9999884E-25
  4.9999999E-03    9.9999943E-25
  5.0349999E-03    9.9999933E-25
  5.0700000E-03    9.9999854E-25
  5.1050000E-03    9.9999903E-25
  5.1400000E-03    1.0000011E-24
  5.1750001E-03    1.0000026E-24
  5.2100001E-03    1.0000010E-24
  5.2450001E-03    1.0000000E-24
  5.2800002E-03    1.0000006E-24
  5.3150002E-03    9.9999893E-25
  5.3500002E-03    9.9999746E-25
  5.3849998E-03    9.9999943E-25
  5.4199998E-03    1.0000018E-24
  5.4549999E-03    1.0000014E-24
  5.4899999E-03    9.9999963E-25
  5.5249999E-03    9.9999963E-25
  5.5600000E-03    1.0000014E-24
  5.5950000E-03    1.0000003E-24
  5.6300000E-03    9.9999844E-25
  5.6650001E-03    1.0000007E-24
  5.7000001E-03    1.0000022E-24
  5.7350001E-03    9.9999805E-25
  5.7700002E-03    9.9999864E-25
  5.8050002E-03    1.0000032E-24
  5.8400002E-03    1.0000004E-24
  5.8749998E-03    9.9999785E-25
  5.9099998E-03    1.0000015E-24
  5.9449999E-03    1.0000005E-24
  5.9799999E-03    9.9999637E-25
  6.0149999E-03    9.9999923E-25
  6.0500000E-03    1.0000024E-24
  6.0850000E-03    9.9999953E-25
  6.1200000E-03    9.9999992E-25
  6.1550001E-03    1.0000029E-24
  6.1900001E-03    1.0000006E-24
  6.2250001E-03    9.9999785E-25
  6.2600002E-03    1.0000003E-24
  6.2950002E-03    1.0000019E-24
  6.3299998E-03    9.9999923E-25
  6.3649998E-03    9.9999874E-25
  6.3999998E-03    1.0000023E-24
  6.4349999E-03    1.0000017E-24
  6.4699999E-03    9.9999657E-25
  6.5049999E-03    9.9999657E-25
  6.5400000E-03    1.0000035E-24
  6.5750000E-03    1.0000053E-24
  6.6100000E-03    9.9999775E-25
  6.6450001E-03    9.9999203E-25
  6.6800001E-03    9.9999933E-25
  6.7150001E-03    1.0000120E-24
  6.7500002E-03    1.0000055E-24
  6.7850002E-03    9.9998089E-25
  6.8199998E-03    9.9998335E-25
  6.8549998E-03    1.0000254E-24
  6.8899998E-03    1.0000342E-24
  6.9249999E-03    9.9996127E-25
  6.9599999E-03    9.9992666E-25
  6.9949999E-03    1.0000418E-24
  7.0300000E-03    1.0001267E-24
  7.0650000E-03    9.9996787E-25
  7.1000000E-03    9.9979354E-25
  7.1350001E-03    9.9998838E-25
  7.1700001E-03    1.0003140E-24
  7.2050001E-03    1.0001126E-24
  7.2400002E-03    9.9955776E-25
  7.2750002E-03    9.9968201E-25
  7.3099998E-03    1.0006059E-24
  7.3449998E-03    1.0007007E-24
  7.3799998E-03    9.9929626E-25
  7.4149999E-03    9.9871289E-25
  7.4499999E-03    1.0006702E-24
  7.4850000E-03    1.0021579E-24
  7.5200000E-03    9.9964986E-25
  7.5550000E-03    9.9668789E-25
  7.5900001E-03    9.9952532E-25
  7.6250001E-03    1.0047919E-24
  7.6600001E-03    1.0023002E-24
  7.6950002E-03    9.9361754E-25
  7.7300002E-03    9.9439122E-25
  7.7650002E-03    1.0077575E-24
  7.7999998E-03    1.0113184E-24
  7.8349998E-03    9.9234412E-25
  7.8699999E-03    9.8086216E-25
  7.9049999E-03    1.0051485E-24
  7.9399999E-03    1.0303104E-24
  7.9750000E-03    1.0028826E-24
  8.0100000E-03    9.5657323E-25
  8.0450000E-03    9.8075615E-25
  8.0800001E-03    1.0573570E-24
  8.1150001E-03    1.0485426E-24
  8.1500001E-03    9.3258653E-25
  8.1850002E-03    9.0525723E-25
  8.2200002E-03    1.0659888E-24
  8.2550002E-03    1.1596126E-24
  8.2900003E-03    9.5835329E-25
  8.3250003E-03    7.5489108E-25
  8.3600003E-03    9.7225302E-25
  8.3950004E-03    1.3437184E-24
  8.4300004E-03    1.1637087E-24
  8.4650004E-03    5.6518260E-25
  8.5000005E-03    6.0424877E-25
  8.5349996E-03    1.4783758E-24
  8.5699996E-03    1.7388510E-24
  8.6049996E-03    5.9538207E-25
  8.6399997E-03   -2.1437391E-25
  8.6749997E-03    1.1144155E-24
  8.7099997E-03    2.7911619E-24
  8.7449998E-03    1.4998179E-24
  8.7799998E-03   -1.3751817E-24
  8.8149998E-03   -6.0648534E-25
  8.8499999E-03    3.7886796E-24
  8.8849999E-03    4.3770243E-24
  8.9199999E-03   -1.7063860E-24
  8.9550000E-03   -4.8249896E-24
  8.9900000E-03    2.6612931E-24
  9.0250000E-03    9.9005104E-24
  9.0600001E-03    1.9999454E-24
  9.0950001E-03   -1.1233239E-23
  9.1300001E-03   -5.1012120E-24
  9.1650002E-03    1.5992127E-23
  9.2000002E-03    1.5418113E-23
  9.2350002E-03   -1.4705633E-23
  9.2700003E-03   -2.5317347E-23
  9.3050003E-03    1.3078890E-23
  9.3400003E-03    4.2694550E-23
  9.3750004E-03    3.7375148E-26
  9.4100004E-03   -5.8037437E-23
  9.4450004E-03   -2.0468979E-23
  9.4799995E-03    7.5741249E-23
  9.5149996E-03    5.9897464E-23
  9.5499996E-03   -8.1267876E-23
  9.5849996E-03   -1.1298392E-22
  9.6199997E-03    7.2119904E-23
  9.6549997E-03    1.8748605E-22
  9.6899997E-03   -2.6706952E-23
  9.7249998E-03   -2.7029992E-22
  9.7599998E-03   -6.4472485E-23
  9.7949998E-03    3.5419355E-22
  9.8299999E-03    2.2669055E-22
  9.8649999E-03   -4.0354501E-22
  9.8999999E-03   -4.6435821E-22
  9.9350000E-03    3.8440440E-22
  9.9700000E-03    7.8838148E-22
  1.0005000E-02   -2.3048191E-22
  1.0040000E-02   -1.1738513E-21
  1.0075000E-02   -1.2897228E-22
  1.0110000E-02    1.5634772E-21
  1.0145000E-02    7.7163006E-22
  1.0180000E-02   -1.8531669E-21
  1.0215000E-02   -1.7580718E-21
  1.0250000E-02    1.8752653E-21
  1.0285000E-02    3.1108591E-21
  1.0320000E-02   -1.3859745E-21
  1.0355000E-02   -4.7532835E-21
  1.0390000E-02    1.0276771E-22
  1.0425000E-02    6.5045150E-21
  1.0460000E-02    2.3028811E-21
  1.0495000E-02   -7.9471684E-21
  1.0530000E-02   -6.0942027E-21
  1.0565000E-02    8.4667291E-21
  1.0600000E-02    1.1395556E-20
  1.0635000E-02   -7.1600382E-21
  1.0670000E-02   -1.8011462E-20
  1.0705000E-02    2.9059893E-21
  1.0740000E-02    2.5238471E-20
  1.0775000E-02    5.4761154E-21
  1.0810000E-02   -3.1719792E-20
  1.0845000E-02   -1.9085367E-20
  1.0880000E-02    3.5246431E-20
  1.0915000E-02    3.8511710E-20
  1.0950000E-02   -3.2579465E-20
  1.0985000E-02   -6.3229479E-20
  1.1020000E-02    1.9828807E-20
  1.1055000E-02    9.1118403E-20
  1.1090000E-02    7.4761198E-21
  1.1125000E-02   -1.1747499E-19
  1.1160000E-02   -5.3249852E-20
  1.1195000E-02    1.3498768E-19
  1.1230000E-02    1.1996209E-19
  1.1265000E-02   -1.3285973E-19
  1.1300000E-02   -2.0624853E-19
  1.1335000E-02    9.7888560E-20
  1.1370000E-02    3.0593901E-19
  1.1405000E-02   -1.4809307E-20
  1.1440000E-02   -4.0467857E-19
  1.1475000E-02   -1.3012495E-19
  1.1510000E-02    4.7813945E-19
  1.1545000E-02    3.4481538E-19
  1.1580000E-02   -4.9288534E-19
  1.1615000E-02   -6.2773558E-19
  1.1650000E-02    4.0528895E-19
  1.1685000E-02    9.5934629E-19
  1.1720000E-02   -1.6955761E-19
  1.1755000E-02   -1.2993079E-18
  1.1790000E-02   -2.6107637E-19
  1.1825000E-02    1.5715711E-18
  1.1860000E-02    9.1281397E-19
  1.1895000E-02   -1.6749493E-18
  1.1930000E-02   -1.7819356E-18
  1.1965000E-02    1.4823767E-18
  1.2000000E-02    2.8169106E-18
  1.2035000E-02   -8.4863023E-19
  1.2070000E-02   -3.8869370E-18
  1.2105000E-02   -3.5168858E-19
  1.2140000E-02    4.7933032E-18
  1.2175000E-02    2.2133176E-18
  1.2210000E-02   -5.2400924E-18
  1.2245000E-02   -4.7237352E-18
  1.2280000E-02    4.8573104E-18
  1.2315000E-02    7.7218212E-18
  1.2350000E-02   -3.2589311E-18
  1.2385000E-02   -1.0883477E-17
  1.2420000E-02    6.7034400E-20
  1.2455000E-02    1.3627753E-17
  1.2490000E-02    4.9472465E-18
  1.2525000E-02   -1.5161422E-17
  1.2560000E-02   -1.1738443E-17
  1.2595000E-02    1.4522785E-17
  1.2630000E-02    1.9922910E-17
  1.2665000E-02   -1.0658957E-17
  1.2700000E-02   -2.8579216E-17
  1.2735000E-02    2.6427378E-18
  1.2770000E-02    3.6237631E-17
  1.2805000E-02    1.0085915E-17
  1.2840000E-02   -4.0891581E-17
  1.2875000E-02   -2.7449426E-17
  1.2910000E-02    4.0065496E-17
  1.2945000E-02    4.8389298E-17
  1.2980000E-02   -3.1141907E-17
  1.3015000E-02   -7.0514494E-17
  1.3050000E-02    1.2004141E-17
  1.3085000E-02    9.0312896E-17
  1.3120000E-02    1.8709249E-17
  1.3155000E-02   -1.0275811E-16
  1.3190000E-02   -6.0590285E-17
  1.3225000E-02    1.0199598E-16
  1.3260000E-02    1.1090320E-16
  1.3295000E-02   -8.2113564E-17
  1.3330000E-02   -1.6399280E-16
  1.3365000E-02    3.8235716E-17
  1.3400000E-02    2.1118343E-16
  1.3435000E-02    3.2225163E-17
  1.3470000E-02   -2.4130118E-16
  1.3505000E-02   -1.2795885E-16
  1.3540000E-02    2.4089373E-16
  1.3575000E-02    2.4181110E-16
  1.3610000E-02   -1.9726777E-16
  1.3645000E-02   -3.6080192E-16
  1.3680000E-02    1.0033234E-16
  1.3715000E-02    4.6531776E-16
  1.3750000E-02    5.4357297E-17
  1.3785000E-02   -5.3019630E-16
  1.3820000E-02   -2.6205339E-16
  1.3855000E-02    5.2768829E-16
  1.3890000E-02    5.0575919E-16
  1.3925000E-02   -4.3136715E-16
  1.3960000E-02   -7.5564344E-16
  1.3995000E-02    2.2230441E-16
  1.4030000E-02    9.6836692E-16
  1.4065000E-02    1.0438825E-16
  1.4100000E-02   -1.0914378E-15
  1.4135000E-02   -5.3397126E-16
  1.4170000E-02    1.0684264E-15
  1.4205000E-02    1.0257115E-15
  1.4240000E-02   -8.4942576E-16
  1.4275000E-02   -1.5112962E-15
  1.4310000E-02    4.0550847E-16
  1.4345000E-02    1.9008491E-15
  1.4380000E-02    2.6347415E-16
  1.4415000E-02   -2.0885575E-15
  1.4450000E-02   -1.1116088E-15
  1.4485000E-02    1.9662210E-15
  1.4520000E-02    2.0390042E-15
  1.4555000E-02   -1.4536662E-15
  1.4590000E-02   -2.9002791E-15
  1.4625000E-02    5.1374729E-16
  1.4660000E-02    3.5085246E-15
  1.4695000E-02    8.1333205E-16
  1.4730000E-02   -3.6636551E-15
  1.4765000E-02   -2.4006231E-15
  1.4800000E-02    3.1829323E-15
  1.4835000E-02    4.0176509E-15
  1.4870000E-02   -1.9529461E-15
  1.4905000E-02   -5.3513437E-15
  1.4940000E-02   -1.9592218E-17
  1.4975000E-02    6.0409195E-15
  1.5010000E-02    2.5738547E-15
  1.5045000E-02   -5.7302656E-15
  1.5080000E-02   -5.3683953E-15
  1.5115000E-02    4.1508219E-15
  1.5150000E-02    7.8742817E-15
  1.5185000E-02   -1.2357693E-15
  1.5220000E-02   -9.4662420E-15
  1.5255000E-02   -2.8373823E-15
  1.5290000E-02    9.4769697E-15
  1.5325000E-02    7.5422033E-15
  1.5360000E-02   -7.3647778E-15
  1.5395000E-02   -1.2035246E-14
  1.5430000E-02    2.8619943E-15
  1.5465000E-02    1.5192690E-14
  1.5500000E-02    3.8212816E-15
  1.5535000E-02   -1.5814910E-14
  1.5570000E-02   -1.1931978E-14
  1.5605000E-02    1.2795242E-14
  1.5640000E-02    2.0055550E-14
  1.5675001E-02   -5.5093649E-15
  1.5710000E-02   -2.6277481E-14
  1.5745001E-02   -5.9411755E-15
  1.5780000E-02    2.8374628E-14
  1.5814999E-02    2.0433379E-14
  1.5850000E-02   -2.4240529E-14
  1.5884999E-02   -3.5690828E-14
  1.5920000E-02    1.2425417E-14
  1.5954999E-02    4.8419805E-14
  1.5990000E-02    7.3402105E-15
  1.6024999E-02   -5.4611968E-14
  1.6060000E-02   -3.3525141E-14
  1.6094999E-02    5.0265754E-14
  1.6130000E-02    6.2598608E-14
  1.6164999E-02   -3.2249807E-14
  1.6200000E-02   -8.9012477E-14
  1.6235000E-02   -6.3312060E-16
  1.6270000E-02    1.0576692E-13
  1.6305000E-02    4.6714108E-14
  1.6340001E-02   -1.0541735E-13
  1.6375000E-02   -1.0075853E-13
  1.6410001E-02    8.1637083E-14
  1.6445000E-02    1.5388084E-13
  1.6480001E-02   -3.0983798E-14
  1.6515000E-02   -1.9430848E-13
  1.6550001E-02   -4.5458608E-14
  1.6585000E-02    2.0882931E-13
  1.6620001E-02    1.4055871E-13
  1.6655000E-02   -1.8541834E-13
  1.6690001E-02   -2.4098499E-13
  1.6725000E-02    1.1593690E-13
  1.6759999E-02    3.2777676E-13
  1.6795000E-02    6.5184580E-16
  1.6829999E-02   -3.7881997E-13
  1.6865000E-02   -1.5590612E-13
  1.6899999E-02    3.7248809E-13
  1.6935000E-02    3.3091298E-13
  1.6969999E-02   -2.9248793E-13
  1.7005000E-02   -4.9718541E-13
  1.7039999E-02    1.3250502E-13
  1.7075000E-02    6.1960116E-13
  1.7109999E-02    9.9226251E-14
  1.7145000E-02   -6.6232219E-13
  1.7180000E-02   -3.7824174E-13
  1.7215000E-02    5.9534799E-13
  1.7250000E-02    6.6389618E-13
  1.7285001E-02   -4.0286264E-13
  1.7320000E-02   -9.0416552E-13
  1.7355001E-02    8.9555479E-14
  1.7390000E-02    1.0430749E-12
  1.7425001E-02    3.1520630E-13
  1.7460000E-02   -1.0312786E-12
  1.7495001E-02   -7.5783807E-13
  1.7530000E-02    8.3718601E-13
  1.7565001E-02    1.1655013E-12
  1.7600000E-02   -4.5764840E-13
  1.7635001E-02   -1.4570146E-12
  1.7670000E-02   -7.5900393E-14
  1.7704999E-02    1.5571312E-12
  1.7740000E-02    6.9662185E-13
  1.7774999E-02   -1.4129188E-12
  1.7810000E-02   -1.3092707E-12
  1.7844999E-02    1.0079650E-12
  1.7880000E-02    1.8037402E-12
  1.7914999E-02   -3.7217197E-13
  1.7950000E-02   -2.0743374E-12
  1.7984999E-02   -4.1638955E-13
  1.8020000E-02    2.0417661E-12
  1.8054999E-02    1.2400341E-12
  1.8090000E-02   -1.6724334E-12
  1.8124999E-02   -1.9589267E-12
  1.8160000E-02    9.9130860E-13
  1.8195000E-02    2.4356272E-12
  1.8230001E-02   -8.4798718E-14
  1.8265000E-02   -2.5629303E-12
  1.8300001E-02   -9.0941588E-13
  1.8335000E-02    2.2884546E-12
  1.8370001E-02    1.8241342E-12
  1.8405000E-02   -1.6306790E-12
  1.8440001E-02   -2.4929290E-12
  1.8475000E-02    6.8209370E-13
  1.8510001E-02    2.7836828E-12
  1.8545000E-02    4.0308926E-13
  1.8580001E-02   -2.6279107E-12
  1.8615000E-02   -1.4350826E-12
  1.8650001E-02    2.0396360E-12
  1.8685000E-02    2.2251062E-12
  1.8719999E-02   -1.1172093E-12
  1.8755000E-02   -2.6232777E-12
  1.8789999E-02    2.8878369E-14
  1.8825000E-02    2.5521787E-12
  1.8859999E-02    1.0186850E-12
  1.8895000E-02   -2.0262288E-12
  1.8929999E-02   -1.8213363E-12
  1.8965000E-02    1.1528673E-12
  1.8999999E-02    2.2200880E-12
  1.9035000E-02   -1.1403281E-13
  1.9069999E-02   -2.1362443E-12
  1.9105000E-02   -8.6892798E-13
  1.9140000E-02    1.5913952E-12
  1.9175000E-02    1.5807890E-12
  1.9210000E-02   -7.0619243E-13
  1.9245001E-02   -1.8575634E-12
  1.9280000E-02   -3.2096363E-13
  1.9315001E-02    1.6227518E-12
  1.9350000E-02    1.2524649E-12
  1.9385001E-02   -9.0617151E-13
  1.9420000E-02   -1.8577594E-12
  1.9455001E-02   -1.5669925E-13
  1.9490000E-02    1.9611066E-12
  1.9525001E-02    1.3469816E-12
  1.9560000E-02   -1.4792774E-12
  1.9595001E-02   -2.4013413E-12
  1.9630000E-02    4.4278098E-13
  1.9664999E-02    3.0602975E-12
  1.9700000E-02    1.0042884E-12
  1.9734999E-02   -3.1149599E-12
  1.9770000E-02   -2.6212402E-12
  1.9804999E-02    2.4486457E-12
  1.9840000E-02    4.1047018E-12
  1.9874999E-02   -1.0669539E-12
  1.9910000E-02   -5.1361020E-12
  1.9944999E-02   -8.8972493E-13
  1.9980000E-02    5.4372735E-12
  2.0014999E-02    3.1575480E-12
  2.0050000E-02   -4.8209301E-12
  2.0085000E-02   -5.3782595E-12
  2.0120000E-02    3.2330783E-12
  2.0155000E-02    7.1440271E-12
  2.0190001E-02   -7.8470959E-13
  2.0225000E-02   -8.0602400E-12
  2.0260001E-02   -2.2363415E-12
  2.0295000E-02    7.8265163E-12
  2.0330001E-02    5.3951687E-12
  2.0365000E-02   -6.3058369E-12
  2.0400001E-02   -8.1698849E-12
  2.0435000E-02    3.5713427E-12
  2.0470001E-02    1.0032130E-11
  2.0505000E-02    7.2284023E-14
  2.0540001E-02   -1.0546524E-11
  2.0575000E-02   -4.1046515E-12
  2.0609999E-02    9.4847567E-12
  2.0645000E-02    7.8739428E-12
  2.0679999E-02   -6.9038469E-12
  2.0715000E-02   -1.0731780E-11
  2.0749999E-02    3.1501073E-12
  2.0785000E-02    1.2164211E-11
  2.0819999E-02    1.1931683E-12
  2.0855000E-02   -1.1899594E-11
  2.0889999E-02   -5.3966211E-12
  2.0925000E-02    1.0001769E-11
  2.0959999E-02    8.7450663E-12
  2.0995000E-02   -6.8876697E-12
  2.1029999E-02   -1.0737746E-11
  2.1065000E-02    3.2088175E-12
  2.1100000E-02    1.1211441E-11
  2.1135001E-02    3.3853484E-13
  2.1170000E-02   -1.0338990E-11
  2.1205001E-02   -3.1676530E-12
  2.1240000E-02    8.5783637E-12
  2.1275001E-02    4.9406347E-12
  2.1310000E-02   -6.5697599E-12
  2.1345001E-02   -5.7068183E-12
  2.1380000E-02    4.9002339E-12
  2.1415001E-02    5.8932694E-12
  2.1450000E-02   -3.8356835E-12
  2.1485001E-02   -6.0739859E-12
  2.1520000E-02    3.2424050E-12
  2.1555001E-02    6.7126573E-12
  2.1590000E-02   -2.6812415E-12
  2.1624999E-02   -8.0171755E-12
  2.1660000E-02    1.5108732E-12
  2.1694999E-02    9.7934074E-12
  2.1730000E-02    9.2609123E-13
  2.1764999E-02   -1.1316431E-11
  2.1800000E-02   -4.9073827E-12
  2.1834999E-02    1.1519124E-11
  2.1870000E-02    1.0023219E-11
  2.1904999E-02   -9.4655334E-12
  2.1940000E-02   -1.5261799E-11
  2.1974999E-02    4.6943777E-12
  2.2010000E-02    1.9269837E-11
  2.2045000E-02    2.6404558E-12
  2.2080000E-02   -2.0551408E-11
  2.2115000E-02   -1.1562611E-11
  2.2150001E-02    1.7883625E-11
  2.2185000E-02    2.0225909E-11
  2.2220001E-02   -1.0974988E-11
  2.2255000E-02   -2.6451704E-11
  2.2290001E-02    7.3736313E-13
  2.2325000E-02    2.8491515E-11
  2.2360001E-02    1.1051124E-11
  2.2395000E-02   -2.5378104E-11
  2.2430001E-02   -2.2103347E-11
  2.2465000E-02    1.7099109E-11
  2.2500001E-02    2.9891003E-11
  2.2535000E-02   -4.9326090E-12
  2.2569999E-02   -3.2342677E-11
  2.2605000E-02   -8.6291876E-12
  2.2639999E-02    2.8698783E-11
  2.2675000E-02    2.0735984E-11
  2.2709999E-02   -1.9623268E-11
  2.2745000E-02   -2.8984853E-11
  2.2779999E-02    6.7552465E-12
  2.2815000E-02    3.1666992E-11
  2.2849999E-02    7.5405359E-12
  2.2885000E-02   -2.8019963E-11
  2.2919999E-02   -2.0425075E-11
  2.2955000E-02    1.8644742E-11
  2.2990000E-02    2.9348336E-11
  2.3025000E-02   -5.3495572E-12
  2.3060000E-02   -3.2713048E-11
  2.3095001E-02   -9.4896261E-12
  2.3130000E-02    2.9958810E-11
  2.3165001E-02    2.3387129E-11
  2.3200000E-02   -2.1457461E-11
  2.3235001E-02   -3.3990043E-11
  2.3270000E-02    8.5119307E-12
  2.3305001E-02    3.9452955E-11
  2.3340000E-02    6.8713910E-12
  2.3375001E-02   -3.8629978E-11
  2.3410000E-02   -2.2148842E-11
  2.3445001E-02    3.1321237E-11
  2.3480000E-02    3.4496340E-11
  2.3514999E-02   -1.8603718E-11
  2.3550000E-02   -4.1480850E-11
  2.3584999E-02    2.6877352E-12
  2.3620000E-02    4.1705330E-11
  2.3654999E-02    1.3828622E-11
  2.3690000E-02   -3.4516379E-11
  2.3724999E-02   -2.7793993E-11
  2.3760000E-02    2.0412623E-11
  2.3794999E-02    3.5555989E-11
  2.3830000E-02   -2.1915102E-12
  2.3864999E-02   -3.4756562E-11
  2.3900000E-02   -1.5626715E-11
  2.3934999E-02    2.6007897E-11
  2.3970000E-02    2.9514093E-11
  2.4005000E-02   -1.1224137E-11
  2.4040001E-02   -3.6974337E-11
  2.4075000E-02   -7.2577716E-12
  2.4110001E-02    3.5358841E-11
  2.4145000E-02    2.4763708E-11
  2.4180001E-02   -2.4183565E-11
  2.4215000E-02   -3.4796437E-11
  2.4250001E-02    8.4169390E-12
  2.4285000E-02    3.4827176E-11
  2.4320001E-02    5.5501346E-12
  2.4355000E-02   -2.7156520E-11
  2.4390001E-02   -1.4575251E-11
  2.4425000E-02    1.4144884E-11
  2.4460001E-02    1.6417727E-11
  2.4495000E-02    2.0246769E-12
  2.4529999E-02   -7.1353804E-12
  2.4565000E-02   -1.3979738E-11
  2.4599999E-02   -1.1897315E-11
  2.4635000E-02    1.3616172E-11
  2.4669999E-02    3.1522025E-11
  2.4705000E-02   -8.2650472E-13
  2.4739999E-02   -4.3362969E-11
  2.4775000E-02   -1.8365814E-11
  2.4809999E-02    4.5411820E-11
  2.4845000E-02    4.0314866E-11
  2.4879999E-02   -3.5023720E-11
  2.4915000E-02   -5.9556284E-11
  2.4950000E-02    9.9588116E-12
  2.4985000E-02    6.5063364E-11
  2.5020000E-02    2.2766740E-11
  2.5055001E-02   -4.9375729E-11
  2.5090000E-02   -4.8384168E-11
  2.5125001E-02    1.7865919E-11
  2.5160000E-02    5.8462221E-11
  2.5195001E-02    2.0462283E-11
  2.5230000E-02   -5.0848669E-11
  2.5265001E-02   -5.8570003E-11
  2.5300000E-02    2.3538794E-11
  2.5335001E-02    8.6224312E-11
  2.5370000E-02    2.1305511E-11
  2.5405001E-02   -8.9638345E-11
  2.5440000E-02   -6.8606724E-11
  2.5474999E-02    6.6185675E-11
  2.5510000E-02    1.0107083E-10
  2.5544999E-02   -2.6011861E-11
  2.5580000E-02   -1.1040864E-10
  2.5614999E-02   -1.7711594E-11
  2.5650000E-02    9.6822772E-11
  2.5684999E-02    5.5345045E-11
  2.5720000E-02   -6.1961290E-11
  2.5754999E-02   -7.5757220E-11
  2.5790000E-02    1.3603100E-11
  2.5824999E-02    7.0263469E-11
  2.5860000E-02    3.3631018E-11
  2.5895000E-02   -3.8811784E-11
  2.5930000E-02   -6.3346425E-11
  2.5965000E-02   -6.1362113E-12
  2.6000001E-02    6.9273934E-11
  2.6035000E-02    4.9399068E-11
  2.6070001E-02   -5.6045734E-11
  2.6105000E-02   -8.2054606E-11
  2.6140001E-02    3.2050661E-11
  2.6175000E-02    1.0315372E-10
  2.6210001E-02   -1.2871715E-13
  2.6245000E-02   -1.0837968E-10
  2.6280001E-02   -3.3288903E-11
  2.6315000E-02    9.4503509E-11
  2.6350001E-02    5.5370760E-11
  2.6385000E-02   -7.0325072E-11
  2.6419999E-02   -6.0984613E-11
  2.6455000E-02    4.9508217E-11
  2.6489999E-02    6.0276277E-11
  2.6525000E-02   -2.9811681E-11
  2.6559999E-02   -5.5182945E-11
  2.6595000E-02    7.1641083E-12
  2.6629999E-02    3.7291732E-11
  2.6665000E-02    7.0887571E-12
  2.6699999E-02   -1.2357646E-11
  2.6735000E-02   -6.0989365E-12
  2.6769999E-02   -3.5551132E-12
  2.6805000E-02    4.8290690E-12
  2.6839999E-02    1.7139156E-11
  2.6875000E-02   -5.9776060E-12
  2.6910000E-02   -3.9954220E-11
  2.6945001E-02   -9.2234761E-12
  2.6980000E-02    5.3860600E-11