 -4.8000002E-03    1.0000000E-24
 -4.7650002E-03    1.0000002E-24
 -4.7300002E-03    1.0000001E-24
 -4.6950001E-03    9.9999992E-25
 -4.6600001E-03    1.0000001E-24
 -4.6250001E-03    1.0000002E-24
 -4.5900000E-03    1.0000000E-24
 -4.5550000E-03    1.0000001E-24
 -4.5200000E-03    1.0000003E-24
 -4.4849999E-03    9.9999992E-25
 -4.4499999E-03    9.9999982E-25
 -4.4149999E-03    1.0000003E-24
 -4.3799998E-03    1.0000003E-24
 -4.3449998E-03    9.9999972E-25
 -4.3100002E-03    1.0000000E-24
 -4.2750002E-03    1.0000004E-24
 -4.2400002E-03    1.0000003E-24
 -4.2050001E-03    9.9999992E-25
 -4.1700001E-03    1.0000002E-24
 -4.1350001E-03    1.0000002E-24
 -4.1000000E-03    9.9999982E-25
 -4.0650000E-03    9.9999963E-25
 -4.0300000E-03    9.9999982E-25
 -3.9949999E-03    1.0000001E-24
 -3.9599999E-03    1.0000001E-24
 -3.9249999E-03    1.0000001E-24
 -3.8900001E-03    1.0000003E-24
 -3.8550000E-03    1.0000001E-24
 -3.8200000E-03    9.9999972E-25
 -3.7849999E-03    9.9999982E-25
 -3.7499999E-03    1.0000006E-24
 -3.7150001E-03    1.0000006E-24
 -3.6800001E-03    9.9999972E-25
 -3.6450000E-03    9.9999972E-25
 -3.6100000E-03    1.0000005E-24
 -3.5750000E-03    1.0000002E-24
 -3.5399999E-03    9.9999903E-25
 -3.5049999E-03    9.9999953E-25
 -3.4700001E-03    1.0000007E-24
 -3.4350001E-03    1.0000005E-24
 -3.4000000E-03    9.9999992E-25
 -3.3650000E-03    1.0000000E-24
 -3.3300000E-03    1.0000003E-24
 -3.2949999E-03    1.0000000E-24
 -3.2599999E-03    1.0000000E-24
 -3.2250001E-03    1.0000003E-24
 -3.1900001E-03    9.9999963E-25
 -3.1550000E-03    9.9999923E-25
 -3.1200000E-03    1.0000005E-24
 -3.0850000E-03    1.0000008E-24
 -3.0499999E-03    9.9999933E-25
 -3.0149999E-03    9.9999963E-25
 -2.9800001E-03    1.0000012E-24
 -2.9450001E-03    1.0000006E-24
 -2.9100000E-03    9.9999884E-25
 -2.8750000E-03    9.9999972E-25
 -2.8400000E-03    1.0000014E-24
 -2.8049999E-03    1.0000005E-24
 -2.7699999E-03    9.9999884E-25
 -2.7350001E-03    9.9999923E-25
 -2.7000001E-03    1.0000006E-24
 -2.6650000E-03    1.0000007E-24
 -2.6300000E-03    1.0000001E-24
 -2.5950000E-03    1.0000001E-24
 -2.5599999E-03    1.0000004E-24
 -2.5249999E-03    1.0000002E-24
 -2.4900001E-03    9.9999982E-25
 -2.4550001E-03    9.9999953E-25
 -2.4200000E-03    9.9999933E-25
 -2.3850000E-03    1.0000000E-24
 -2.3500000E-03    1.0000014E-24
 -2.3149999E-03    1.0000006E-24
 -2.2799999E-03    9.9999864E-25
 -2.2450001E-03    9.9999913E-25
 -2.2100001E-03    1.0000009E-24
 -2.1750000E-03    1.0000003E-24
 -2.1400000E-03    9.9999893E-25
 -2.1050000E-03    1.0000005E-24
 -2.0699999E-03    1.0000022E-24
 -2.0349999E-03    1.0000005E-24
 -2.0000001E-03    9.9999844E-25
 -1.9650001E-03    9.9999893E-25
 -1.9300000E-03    1.0000005E-24
 -1.8950000E-03    1.0000003E-24
 -1.8600000E-03    9.9999953E-25
 -1.8250000E-03    1.0000000E-24
 -1.7900000E-03    1.0000011E-24
 -1.7550000E-03    1.0000000E-24
 -1.7199999E-03    9.9999884E-25
 -1.6850000E-03    1.0000000E-24
 -1.6500000E-03    1.0000007E-24
 -1.6150000E-03    9.9999992E-25
 -1.5800000E-03    1.0000002E-24
 -1.5450000E-03    1.0000010E-24
 -1.5100000E-03    1.0000001E-24
 -1.4750001E-03    9.9999913E-25
 -1.4400000E-03    1.0000003E-24
 -1.4050000E-03    1.0000005E-24
 -1.3700000E-03    9.9999893E-25
 -1.3350000E-03    9.9999982E-25
 -1.3000000E-03    1.0000016E-24
 -1.2650000E-03    1.0000003E-24
 -1.2300001E-03    9.9999844E-25
 -1.1950000E-03    9.9999943E-25
 -1.1600000E-03    1.0000008E-24
 -1.1250000E-03    9.9999972E-25
 -1.0900000E-03    9.9999923E-25
 -1.0550000E-03    1.0000006E-24
 -1.0200000E-03    1.0000018E-24
 -9.8500005E-04    1.0000006E-24
 -9.5000002E-04    9.9999953E-25
 -9.1499998E-04    1.0000002E-24
 -8.8000001E-04    1.0000006E-24
 -8.4499997E-04    1.0000000E-24
 -8.1000000E-04    9.9999992E-25
 -7.7500002E-04    1.0000000E-24
 -7.3999999E-04    9.9999963E-25
 -7.0500001E-04    9.9999982E-25
 -6.6999998E-04    1.0000006E-24
 -6.3500000E-04    9.9999943E-25
 -6.0000003E-04    9.9999854E-25
 -5.6499999E-04    1.0000003E-24
 -5.3000002E-04    1.0000015E-24
 -4.9499999E-04    1.0000002E-24
 -4.6000001E-04    9.9999972E-25
 -4.2500001E-04    1.0000008E-24
 -3.9000000E-04    1.0000003E-24
 -3.5500000E-04    9.9999943E-25
 -3.1999999E-04    1.0000000E-24
 -2.8499999E-04    1.0000002E-24
 -2.5000001E-04    9.9999972E-25
 -2.1499999E-04    1.0000001E-24
 -1.8000000E-04    1.0000006E-24
 -1.4500000E-04    1.0000002E-24
 -1.1000000E-04    1.0000005E-24
 -7.5000004E-05    1.0000005E-24
 -3.9999999E-05    9.9999953E-25
 -4.9999999E-06    9.9999834E-25
  2.9999999E-05    9.9999874E-25
  6.5000000E-05    1.0000009E-24
  9.9999997E-05    1.0000029E-24
  1.3499999E-04    1.0000003E-24
  1.7000000E-04    9.9999746E-25
  2.0500000E-04    9.9999953E-25
  2.3999999E-04    1.0000019E-24
  2.7500000E-04    9.9999992E-25
  3.1000000E-04    9.9999933E-25
  3.4500001E-04    1.0000016E-24
  3.8000001E-04    1.0000013E-24
  4.1499999E-04    9.9999913E-25
  4.4999999E-04    9.9999903E-25
  4.8500000E-04    1.0000000E-24
  5.2000000E-04    1.0000001E-24
  5.5499998E-04    1.0000006E-24
  5.9000001E-04    1.0000004E-24
  6.2499999E-04    9.9999943E-25
  6.6000002E-04    9.9999982E-25
  6.9500000E-04    1.0000012E-24
  7.3000003E-04    1.0000012E-24
  7.6500000E-04    9.9999982E-25
  7.9999998E-04    9.9999923E-25
  8.3500001E-04    9.9999963E-25
  8.6999999E-04    1.0000009E-24
  9.0500002E-04    1.0000009E-24
  9.4000000E-04    9.9999923E-25
  9.7499997E-04    9.9999923E-25
  1.0100000E-03    1.0000004E-24
  1.0450000E-03    9.9999972E-25
  1.0800000E-03    9.9999874E-25
  1.1150000E-03    1.0000003E-24
  1.1500000E-03    1.0000013E-24
  1.1849999E-03    1.0000002E-24
  1.2200000E-03    9.9999963E-25
  1.2550000E-03    9.9999963E-25
  1.2900000E-03    9.9999923E-25
  1.3250000E-03    1.0000009E-24
  1.3600000E-03    1.0000016E-24
  1.3950000E-03    9.9999992E-25
  1.4299999E-03    1.0000004E-24
  1.4650000E-03    1.0000013E-24
  1.5000000E-03    9.9999923E-25
  1.5350000E-03    9.9999874E-25
  1.5700000E-03    1.0000011E-24
  1.6050000E-03    9.9999992E-25
  1.6400000E-03    9.9999765E-25
  1.6749999E-03    9.9999992E-25
  1.7100000E-03    1.0000019E-24
  1.7450000E-03    9.9999992E-25
  1.7800000E-03    9.9999943E-25
  1.8150000E-03    1.0000012E-24
  1.8500000E-03    9.9999972E-25
  1.8850000E-03    9.9999815E-25
  1.9200000E-03    1.0000005E-24
  1.9550000E-03    1.0000015E-24
  1.9900000E-03    9.9999953E-25
  2.0250001E-03    9.9999992E-25
  2.0600001E-03    1.0000012E-24
  2.0949999E-03    9.9999963E-25
  2.1299999E-03    9.9999893E-25
  2.1650000E-03    1.0000005E-24
  2.2000000E-03    1.0000005E-24
  2.2350000E-03    9.9999923E-25
  2.2700001E-03    9.9999943E-25
  2.3050001E-03    1.0000004E-24
  2.3399999E-03    1.0000012E-24
  2.3749999E-03    1.0000014E-24
  2.4100000E-03    1.0000004E-24
  2.4450000E-03    9.9999982E-25
  2.4800000E-03    9.9999972E-25
  2.5150001E-03    9.9999963E-25
  2.5500001E-03    1.0000002E-24
  2.5849999E-03    1.0000008E-24
  2.6199999E-03    1.0000000E-24
  2.6550000E-03    9.9999963E-25
  2.6900000E-03    9.9999992E-25
  2.7250000E-03    9.9999874E-25
  2.7600001E-03    9.9999903E-25
  2.7950001E-03    1.0000023E-24
  2.8299999E-03    1.0000022E-24
  2.8649999E-03    9.9999903E-25
  2.9000000E-03    9.9999943E-25
  2.9350000E-03    1.0000008E-24
  2.9700000E-03    9.9999884E-25
  3.0050001E-03    9.9999963E-25
  3.0400001E-03    1.0000030E-24
  3.0749999E-03    1.0000012E-24
  3.1099999E-03    9.9999696E-25
  3.1450000E-03    9.9999824E-25
  3.1800000E-03    1.0000010E-24
  3.2150000E-03    9.9999933E-25
  3.2500001E-03    9.9999815E-25
  3.2850001E-03    1.0000010E-24
  3.3199999E-03    1.0000034E-24
  3.3549999E-03    1.0000009E-24
  3.3900000E-03    9.9999598E-25
  3.4250000E-03    1.0000003E-24
  3.4600000E-03    1.0000086E-24
  3.4950001E-03    9.9999785E-25
  3.5300001E-03    9.9998454E-25
  3.5649999E-03    1.0000080E-24
  3.5999999E-03    1.0000250E-24
  3.6350000E-03    9.9997744E-25
  3.6700000E-03    9.9996570E-25
  3.7050000E-03    1.0000540E-24
  3.7400001E-03    1.0000382E-24
  3.7750001E-03    9.9989175E-25
  3.8099999E-03    9.9998158E-25
  3.8449999E-03    1.0001908E-24
  3.8800000E-03    9.9994322E-25
  3.9149998E-03    9.9970765E-25
  3.9499998E-03    1.0002422E-24
  3.9849998E-03    1.0003797E-24
  4.0199999E-03    9.9939151E-25
  4.0549999E-03    9.9963764E-25
  4.0899999E-03    1.0012354E-24
  4.1250000E-03    1.0000590E-24
  4.1600000E-03    9.9781754E-25
  4.1950000E-03    1.0008394E-24
  4.2300001E-03    1.0034265E-24
  4.2650001E-03    9.9719946E-25
  4.3000001E-03    9.9524506E-25
  4.3350002E-03    1.0064562E-24
  4.3700002E-03    1.0056002E-24
  4.4049998E-03    9.8745003E-25
  4.4399998E-03    9.9516736E-25
  4.4749998E-03    1.0217631E-24
  4.5099999E-03    1.0005001E-24
  4.5449999E-03    9.6563408E-25
  4.5799999E-03    1.0104277E-24
  4.6150000E-03    1.0496107E-24
  4.6500000E-03    9.6776618E-25
  4.6850001E-03    9.3520742E-25
  4.7200001E-03    1.0704039E-24
  4.7550001E-03    1.0739076E-24
  4.7900002E-03    8.6888996E-25
  4.8250002E-03    9.3415064E-25
  4.8600002E-03    1.2199835E-24
  4.8949998E-03    1.0222870E-24
  4.9299998E-03    6.6031927E-25
  4.9649999E-03    1.0846133E-24
  4.9999999E-03    1.4857826E-24
  5.0349999E-03    7.0589635E-25
  5.0700000E-03    3.5956366E-25
  5.1050000E-03    1.6575563E-24
  5.1400000E-03    1.7631564E-24
  5.1750001E-03   -2.3662650E-25
  5.2100001E-03    2.2164181E-25
  5.2450001E-03    3.0968995E-24
  5.2800002E-03    1.5594641E-24
  5.3150002E-03   -2.2944313E-24
  5.3500002E-03    1.0899382E-24
  5.3849998E-03    5.8518554E-24
  5.4199998E-03   -4.5651509E-25
  5.4549999E-03   -5.7203053E-24
  5.4899999E-03    4.9363571E-24
  5.5249999E-03    9.7232021E-24
  5.5600000E-03   -7.0481551E-24
  5.5950000E-03   -9.4785693E-24
  5.6300000E-03    1.5432876E-23
  5.6650001E-03    1.2298235E-23
  5.7000001E-03   -2.2828633E-23
  5.7350001E-03   -9.0655004E-24
  5.7700002E-03    3.8004627E-23
  5.8050002E-03    6.0982139E-24
  5.8400002E-03   -5.3631163E-23
  5.8749998E-03    6.9878743E-24
  5.9099998E-03    7.8053735E-23
  5.9449999E-03   -2.5390222E-23
  5.9799999E-03   -1.0292762E-22
  6.0149999E-03    6.1167315E-23
  6.0500000E-03    1.3465472E-22
  6.0850000E-03   -1.1117219E-22
  6.1200000E-03   -1.6154749E-22
  6.1550001E-03    1.8881287E-22
  6.1900001E-03    1.8462858E-22
  6.2250001E-03   -2.9157632E-22
  6.2600002E-03   -1.8396239E-22
  6.2950002E-03    4.3227063E-22
  6.3299998E-03    1.4842096E-22
  6.3649998E-03   -6.0597816E-22
  6.3999998E-03   -4.0824388E-23
  6.4349999E-03    8.2077446E-22
  6.4699999E-03   -1.7350891E-22
  6.5049999E-03   -1.0643740E-21
  6.5400000E-03    5.6256824E-22
  6.5750000E-03    1.3349687E-21
  6.6100000E-03   -1.1992541E-21
  6.6450001E-03   -1.6086135E-21
  6.6800001E-03    2.1956950E-21
  6.7150001E-03    1.8715078E-21
  6.7500002E-03   -3.6704730E-21
  6.7850002E-03   -2.0893114E-21
  6.8199998E-03    5.7740078E-21
  6.8549998E-03    2.2409957E-21
  6.8899998E-03   -8.6402909E-21
  6.9249999E-03   -2.2876469E-21
  6.9599999E-03    1.2388199E-20
  6.9949999E-03    2.2005549E-21
  7.0300000E-03   -1.7039166E-20
  7.0650000E-03   -1.9142912E-21
  7.1000000E-03    2.2474538E-20
  7.1350001E-03    1.3225934E-21
  7.1700001E-03   -2.8302570E-20
  7.2050001E-03   -1.7509371E-22
  7.2400002E-03    3.3766333E-20
  7.2750002E-03   -2.0146050E-21
  7.3099998E-03   -3.7577080E-20
  7.3449998E-03    6.1960598E-21
  7.3799998E-03    3.7827002E-20
  7.4149999E-03   -1.4031046E-20
  7.4499999E-03   -3.1897390E-20
  7.4850000E-03    2.8295189E-20
  7.5200000E-03    1.6553858E-20
  7.5550000E-03   -5.3283295E-20
  7.5900001E-03    1.1816095E-20
  7.6250001E-03    9.5285164E-20
  7.6600001E-03   -5.6600215E-20
  7.6950002E-03   -1.6288475E-19
  7.7300002E-03    1.2003042E-19
  7.7650002E-03    2.6701333E-19
  7.7999998E-03   -2.0174039E-19
  7.8349998E-03   -4.2034072E-19
  7.8699999E-03    2.9696032E-19
  7.9049999E-03    6.3574346E-19
  7.9399999E-03   -3.9438834E-19
  7.9750000E-03   -9.2325692E-19
  8.0100000E-03    4.7425470E-19
  8.0450000E-03    1.2851424E-18
  8.0800001E-03   -5.0715772E-19
  8.1150001E-03   -1.7085244E-18
  8.1500001E-03    4.5491723E-19
  8.1850002E-03    2.1555673E-18
  8.2200002E-03   -2.7489549E-19
  8.2550002E-03   -2.5514316E-18
  8.2900003E-03   -7.0030196E-20
  8.3250003E-03    2.7714430E-18
  8.3600003E-03    5.9366298E-19
  8.3950004E-03   -2.6299982E-18
  8.4300004E-03   -1.2584922E-18
  8.4650004E-03    1.8759309E-18
  8.5000005E-03    1.9363500E-18
  8.5349996E-03   -2.0107309E-19
  8.5699996E-03   -2.3584410E-18
  8.6049996E-03   -2.7285824E-18
  8.6399997E-03    2.0597275E-18
  8.6749997E-03    7.2082057E-18
  8.7099997E-03   -3.2871659E-19
  8.7449998E-03   -1.3384881E-17
  8.7799998E-03   -3.8172483E-18
  8.8149998E-03    2.1096787E-17
  8.8499999E-03    1.1600634E-17
  8.8849999E-03   -2.9663279E-17
  8.9199999E-03   -2.4354485E-17
  8.9550000E-03    3.7647144E-17
  8.9900000E-03    4.3246908E-17
  9.0250000E-03   -4.2638388E-17
  9.0600001E-03   -6.8812924E-17
  9.0950001E-03    4.1148040E-17
  9.1300001E-03    1.0026860E-16
  9.1650002E-03   -2.8743554E-17
  9.2000002E-03   -1.3463029E-16
  9.2350002E-03    5.9644494E-19
  9.2700003E-03    1.6574569E-16
  9.3050003E-03    4.7372677E-17
  9.3400003E-03   -1.8346408E-16
  9.3750004E-03   -1.1660233E-16
  9.4100004E-03    1.7332246E-16
  9.4450004E-03    2.0321877E-16
  9.4799995E-03   -1.1726957E-16
  9.5149996E-03   -2.9477612E-16
  9.5499996E-03   -3.9541826E-18
  9.5849996E-03    3.6694881E-16
  9.6199997E-03    2.0619790E-16
  9.6549997E-03   -3.8116141E-16
  9.6899997E-03   -4.9471473E-16
  9.7249998E-03    2.8462771E-16
  9.7599998E-03    8.5464656E-16
  9.7949998E-03   -1.4637834E-17
  9.8299999E-03   -1.2403394E-15
  9.8649999E-03   -4.9099927E-16
  9.8999999E-03    1.5659014E-15
  9.9350000E-03    1.2759629E-15
  9.9700000E-03   -1.7008239E-15
  1.0005000E-02   -2.3398110E-15
  1.0040000E-02    1.4757108E-15
  1.0075000E-02    3.6070115E-15
  1.0110000E-02   -7.0364875E-16
  1.0145000E-02   -4.8961507E-15
  1.0180000E-02   -7.7815646E-16
  1.0215000E-02    5.8986595E-15
  1.0250000E-02    3.0448403E-15
  1.0285000E-02   -6.1799486E-15
  1.0320000E-02   -6.0023893E-15
  1.0355000E-02    5.2177289E-15
  1.0390000E-02    9.3002125E-15
  1.0425000E-02   -2.4908696E-15
  1.0460000E-02   -1.2259508E-14
  1.0495000E-02   -2.3742751E-15
  1.0530000E-02    1.3848492E-14
  1.0565000E-02    9.4058901E-15
  1.0600000E-02   -1.2741397E-14
  1.0635000E-02   -1.8061815E-14
  1.0670000E-02    7.4965008E-15
  1.0705000E-02    2.7025919E-14
  1.0740000E-02    3.1248636E-15
  1.0775000E-02   -3.4096742E-14
  1.0810000E-02   -1.9703957E-14
  1.0845000E-02    3.6255765E-14
  1.0880000E-02    4.1623595E-14
  1.0915000E-02   -3.0001694E-14
  1.0950000E-02   -6.6541824E-14
  1.0985000E-02    1.2011607E-14
  1.1020000E-02    9.0036641E-14
  1.1055000E-02    1.9869101E-14
  1.1090000E-02   -1.0561745E-13
  1.1125000E-02   -6.5398113E-14
  1.1160000E-02    1.0530460E-13
  1.1195000E-02    1.2067639E-13
  1.1230000E-02   -8.0928747E-14
  1.1265000E-02   -1.7718670E-13
  1.1300000E-02    2.6181517E-14
  1.1335000E-02    2.2155327E-13
  1.1370000E-02    6.0743850E-14
  1.1405000E-02   -2.3646653E-13
  1.1440000E-02   -1.7433281E-13
  1.1475000E-02    2.0312601E-13
  1.1510000E-02    2.9942246E-13
  1.1545000E-02   -1.0531176E-13
  1.1580000E-02   -4.1024451E-13
  1.1615000E-02   -6.5195848E-14
  1.1650000E-02    4.7177372E-13
  1.1685000E-02    3.0263858E-13
  1.1720000E-02   -4.4414599E-13
  1.1755000E-02   -5.8206803E-13
  1.1790000E-02    2.9044537E-13
  1.1825000E-02    8.5665145E-13
  1.1860000E-02    1.2621797E-14
  1.1895000E-02   -1.0593800E-12
  1.1930000E-02   -4.6264197E-13
  1.1965000E-02    1.1107528E-12
  1.2000000E-02    1.0205287E-12
  1.2035000E-02   -9.3311524E-13
  1.2070000E-02   -1.6040545E-12
  1.2105000E-02    4.7085605E-13
  1.2140000E-02    2.0895306E-12
  1.2175000E-02    2.8625038E-13
  1.2210000E-02   -2.3247196E-12
  1.2245000E-02   -1.2812677E-12
  1.2280000E-02    2.1543904E-12
  1.2315000E-02    2.3761889E-12
  1.2350000E-02   -1.4571553E-12
  1.2385000E-02   -3.3527272E-12
  1.2420000E-02    1.8869582E-13
  1.2455000E-02    3.9335544E-12
  1.2490000E-02    1.5772038E-12
  1.2525000E-02   -3.8266209E-12
  1.2560000E-02   -3.6212504E-12
  1.2595000E-02    2.7901190E-12
  1.2630000E-02    5.5770709E-12
  1.2665000E-02   -7.0932203E-13
  1.2700000E-02   -6.9656338E-12
  1.2735000E-02   -2.3299860E-12
  1.2770000E-02    7.2700027E-12
  1.2805000E-02    5.9913892E-12
  1.2840000E-02   -6.0458305E-12
  1.2875000E-02   -9.6819480E-12
  1.2910000E-02    3.0519777E-12
  1.2945000E-02    1.2607160E-11
  1.2980000E-02    1.6248613E-12
  1.3015000E-02   -1.3893172E-11
  1.3050000E-02   -7.4848096E-12
  1.3085000E-02    1.2767315E-11
  1.3120000E-02    1.3602551E-11
  1.3155000E-02   -8.7702718E-12
  1.3190000E-02   -1.8713732E-11
  1.3225000E-02    1.9567781E-12
  1.3260000E-02    2.1408224E-11
  1.3295000E-02    6.9680390E-12
  1.3330000E-02   -2.0413572E-11
  1.3365000E-02   -1.6628480E-11
  1.3400000E-02    1.4924619E-11
  1.3435000E-02    2.5111519E-11
  1.3470000E-02   -4.9114948E-12
  1.3505000E-02   -3.0262119E-11
  1.3540000E-02   -8.6747736E-12
  1.3575000E-02    3.0111150E-11
  1.3610000E-02    2.3874893E-11
  1.3645000E-02   -2.3365572E-11
  1.3680000E-02   -3.7922953E-11
  1.3715000E-02    9.8576477E-12
  1.3750000E-02    4.7682594E-11
  1.3785000E-02    9.1645016E-12
  1.3820000E-02   -5.0266548E-11
  1.3855000E-02   -3.1010156E-11
  1.3890000E-02    4.3730811E-11
  1.3925000E-02    5.1845885E-11
  1.3960000E-02   -2.7692322E-11
  1.3995000E-02   -6.7316056E-11
  1.4030000E-02    3.7081189E-12
  1.4065000E-02    7.3396837E-11
  1.4100000E-02    2.4718385E-11
  1.4135000E-02   -6.7322634E-11
  1.4170000E-02   -5.2568238E-11
  1.4205000E-02    4.8379151E-11
  1.4240000E-02    7.4142983E-11
  1.4275000E-02   -1.8357963E-11
  1.4310000E-02   -8.4169879E-11
  1.4345000E-02   -1.8478214E-11
  1.4380000E-02    7.8957424E-11
  1.4415000E-02    5.5971387E-11
  1.4450000E-02   -5.7345198E-11
  1.4485000E-02   -8.7113615E-11
  1.4520000E-02    2.1216740E-11
  1.4555000E-02    1.0537564E-10
  1.4590000E-02    2.4574873E-11
  1.4625000E-02   -1.0605516E-10
  1.4660000E-02   -7.2897938E-11
  1.4695000E-02    8.7360418E-11
  1.4730000E-02    1.1554639E-10
  1.4765000E-02   -5.0985546E-11
  1.4800000E-02   -1.4473849E-10
  1.4835000E-02    2.0310008E-12
  1.4870000E-02    1.5461896E-10
  1.4905000E-02    5.1744980E-11
  1.4940000E-02   -1.4246486E-10
  1.4975000E-02   -1.0122477E-10
  1.5010000E-02    1.0934330E-10
  1.5045000E-02    1.3754524E-10
  1.5080000E-02   -6.0070122E-11
  1.5115000E-02   -1.5371912E-10
  1.5150000E-02    2.4520225E-12
  1.5185000E-02    1.4593782E-10
  1.5220000E-02    5.4048113E-11
  1.5255000E-02   -1.1429097E-10
  1.5290000E-02   -9.9955821E-11
  1.5325000E-02    6.2768159E-11
  1.5360000E-02    1.2741308E-10
  1.5395000E-02    1.4377925E-12
  1.5430000E-02   -1.3147733E-10
  1.5465000E-02   -6.9159060E-11
  1.5500000E-02    1.1086745E-10
  1.5535000E-02    1.3074238E-10
  1.5570000E-02   -6.8075941E-11
  1.5605000E-02   -1.7750788E-10
  1.5640000E-02    8.9222353E-12
  1.5675001E-02    2.0296510E-10
  1.5710000E-02    5.8293162E-11
  1.5745001E-02   -2.0369571E-10
  1.5780000E-02   -1.2389534E-10
  1.5814999E-02    1.7987718E-10
  1.5850000E-02    1.7811587E-10
  1.5884999E-02   -1.3541429E-10
  1.5920000E-02   -2.1248031E-10
  1.5954999E-02    7.7609724E-11
  1.5990000E-02    2.2119651E-10
  1.6024999E-02   -1.6288181E-11
  1.6060000E-02   -2.0235708E-10
  1.6094999E-02   -3.7686302E-11
  1.6130000E-02    1.5863916E-10
  1.6164999E-02    7.4400139E-11
  1.6200000E-02   -9.7112797E-11
  1.6235000E-02   -8.6977897E-11
  1.6270000E-02    2.7957980E-11
  1.6305000E-02    7.3130085E-11
  1.6340001E-02    3.7688800E-11
  1.6375000E-02   -3.5613772E-11
  1.6410001E-02   -9.0161142E-11
  1.6445000E-02   -1.8575615E-11
  1.6480001E-02    1.2325010E-10
  1.6515000E-02    8.0048315E-11
  1.6550001E-02   -1.3515099E-10
  1.6585000E-02   -1.3928875E-10
  1.6620001E-02    1.2811764E-10
  1.6655000E-02    1.8851395E-10
  1.6690001E-02   -1.0718213E-10
  1.6725000E-02   -2.2255651E-10
  1.6759999E-02    7.8736212E-11
  1.6795000E-02    2.3891064E-10
  1.6829999E-02   -4.9540646E-11
  1.6865000E-02   -2.3752064E-10
  1.6899999E-02    2.6098054E-11
  1.6935000E-02    2.2066428E-10
  1.6969999E-02   -1.4051248E-11
  1.7005000E-02   -1.9290389E-10
  1.7039999E-02    1.7340660E-11
  1.7075000E-02    1.6083297E-10
  1.7109999E-02   -3.7015724E-11
  1.7145000E-02   -1.3207418E-10
  1.7180000E-02    7.0133309E-11
  1.7215000E-02    1.1312345E-10
  1.7250000E-02   -1.0989962E-10
  1.7285001E-02   -1.0677551E-10
  1.7320000E-02    1.4779235E-10
  1.7355001E-02    1.1080883E-10
  1.7390000E-02   -1.7685135E-10
  1.7425001E-02   -1.1899196E-10
  1.7460000E-02    1.9439292E-10
  1.7495001E-02    1.2408478E-10
  1.7530000E-02   -2.0265276E-10
  1.7565001E-02   -1.2148592E-10
  1.7600000E-02    2.0658904E-10
  1.7635001E-02    1.1128861E-10
  1.7670000E-02   -2.0977876E-10
  1.7704999E-02   -9.6773645E-11
  1.7740000E-02    2.1148297E-10
  1.7774999E-02    8.0070693E-11
  1.7810000E-02   -2.0760672E-10
  1.7844999E-02   -5.8358665E-11
  1.7880000E-02    1.9529227E-10
  1.7914999E-02    2.3718227E-11
  1.7950000E-02   -1.7850227E-10
  1.7984999E-02    3.1983950E-11
  1.8020000E-02    1.7056555E-10
  1.8054999E-02   -1.0855947E-10
  1.8090000E-02   -1.8947738E-10
  1.8124999E-02    1.9126839E-10
  1.8160000E-02    2.4657151E-10
  1.8195000E-02   -2.5358796E-10
  1.8230001E-02   -3.3610928E-10
  1.8265000E-02    2.6869373E-10
  1.8300001E-02    4.3287532E-10
  1.8335000E-02   -2.2361936E-10
  1.8370001E-02   -4.9960081E-10
  1.8405000E-02    1.3005452E-10
  1.8440001E-02    5.0369742E-10
  1.8475000E-02   -2.4015760E-11
  1.8510001E-02   -4.3674739E-10
  1.8545000E-02   -5.1263060E-11
  1.8580001E-02    3.2114680E-10
  1.8615000E-02    6.9069687E-11
  1.8650001E-02   -1.9673568E-10
  1.8685000E-02   -3.0962250E-11
  1.8719999E-02    9.9723306E-11
  1.8755000E-02   -3.7495052E-11
  1.8789999E-02   -4.6245875E-11
  1.8825000E-02    1.0122342E-10
  1.8859999E-02    2.4377457E-11
  1.8895000E-02   -1.3857139E-10
  1.8929999E-02   -4.5674640E-12
  1.8965000E-02    1.5867720E-10
  1.8999999E-02   -3.0640351E-11
  1.9035000E-02   -1.8977102E-10
  1.9069999E-02    6.7508749E-11
  1.9105000E-02    2.4820629E-10
  1.9140000E-02   -7.2918518E-11
  1.9175000E-02   -3.2107328E-10
  1.9210000E-02    1.8945864E-11
  1.9245001E-02    3.6866449E-10
  1.9280000E-02    9.5860861E-11
  1.9315001E-02   -3.3909836E-10
  1.9350000E-02   -2.2778623E-10
  1.9385001E-02    2.0656950E-10
  1.9420000E-02    3.0112929E-10
  1.9455001E-02   -6.9663494E-12
  1.9490000E-02   -2.6098573E-10
  1.9525001E-02   -1.7493175E-10
  1.9560000E-02    1.1753828E-10
  1.9595001E-02    2.6075767E-10
  1.9630000E-02    6.3257080E-11
  1.9664999E-02   -2.1491056E-10
  1.9700000E-02   -1.8446791E-10
  1.9734999E-02    7.3010299E-11
  1.9770000E-02    1.7018800E-10
  1.9804999E-02    6.6358100E-11
  1.9840000E-02   -1.9660070E-11
  1.9874999E-02   -9.6136148E-11
  1.9910000E-02   -1.7202102E-10
  1.9944999E-02   -3.8048401E-12
  1.9980000E-02    3.0358638E-10
  2.0014999E-02    1.8022500E-10
  2.0050000E-02   -3.1165706E-10
  2.0085000E-02   -3.2629727E-10
  2.0120000E-02    2.2189503E-10
  2.0155000E-02    3.6198036E-10
  2.0190001E-02   -1.1301109E-10
  2.0225000E-02   -2.5007355E-10
  2.0260001E-02    1.2608717E-10
  2.0295000E-02    1.0576415E-10
  2.0330001E-02   -2.7613720E-10
  2.0365000E-02   -3.3025263E-11
  2.0400001E-02    5.1668925E-10
  2.0435000E-02    1.3019685E-10
  2.0470001E-02   -6.7984912E-10
  2.0505000E-02   -3.1100444E-10
  2.0540001E-02    7.2653361E-10
  2.0575000E-02    5.3374166E-10
  2.0609999E-02   -5.5659377E-10
  2.0645000E-02   -5.6889693E-10
  2.0679999E-02    3.6518388E-10
  2.0715000E-02    4.5429777E-10
  2.0749999E-02   -1.9947578E-10
  2.0785000E-02   -1.2645966E-10
  2.0819999E-02    3.2817346E-10
  2.0855000E-02   -6.1396874E-11
  2.0889999E-02   -5.0908827E-10
  2.0925000E-02    2.0659617E-10
  2.0959999E-02    8.6951468E-10
  2.0995000E-02    2.3785501E-11
  2.1029999E-02   -9.0748209E-10
  2.1065000E-02   -1.6180714E-10
  2.1100000E-02    9.3965957E-10
  2.1135001E-02    4.9342180E-10
  2.1170000E-02   -4.8669524E-10
  2.1205001E-02   -2.8105746E-10
  2.1240000E-02    3.7286751E-10
  2.1275001E-02    2.3752950E-10
  2.1310000E-02    2.9978867E-11
  2.1345001E-02    4.1496406E-10
  2.1380000E-02    3.7218348E-10
  2.1415001E-02   -3.6173500E-10
  2.1450000E-02   -2.7143107E-10
  2.1485001E-02    8.3598323E-10
  2.1520000E-02    1.0073073E-09
  2.1555001E-02   -1.7778219E-10
  2.1590000E-02   -5.9659233E-10
  2.1624999E-02    5.1371934E-10
  2.1660000E-02    1.1972580E-09
  2.1694999E-02    4.5766657E-10
  2.1730000E-02   -1.4768800E-10
  2.1764999E-02    3.6778522E-10
  2.1800000E-02    8.6966079E-10
  2.1834999E-02    5.8889066E-10
  2.1870000E-02    3.8274850E-10
  2.1904999E-02    7.6342938E-10
  2.1940000E-02    9.8830322E-10
  2.1974999E-02    6.9181094E-10
  2.2010000E-02    5.6980287E-10
  2.2045000E-02    1.0039646E-09
  2.2080000E-02    1.4001753E-09
  2.2115000E-02    1.2475670E-09
  2.2150001E-02    8.9891611E-10
  2.2185000E-02    9.7815922E-10
  2.2220001E-02    1.4900408E-09
  2.2255000E-02    1.8395983E-09
  2.2290001E-02    1.7066136E-09
  2.2325000E-02    1.5423365E-09
  2.2360001E-02    1.8024184E-09
  2.2395000E-02    2.1442808E-09
  2.2430001E-02    2.1677300E-09
  2.2465000E-02    2.2844431E-09
  2.2500001E-02    2.7316363E-09
  2.2535000E-02    2.7671634E-09
  2.2569999E-02    2.2774262E-09
  2.2605000E-02    2.5894660E-09
  2.2639999E-02    3.9286303E-09
  2.2675000E-02    4.3188879E-09
  2.2709999E-02    3.1172367E-09
  2.2745000E-02    2.7468656E-09
  2.2779999E-02    4.4415081E-09
  2.2815000E-02    5.6822973E-09
  2.2849999E-02    4.6913482E-09
  2.2885000E-02    3.7332271E-09
  2.2919999E-02    4.8636037E-09
  2.2955000E-02    6.2863426E-09
  2.2990000E-02    6.1046199E-09
  2.3025000E-02    5.7101941E-09
  2.3060000E-02    6.4279626E-09
  2.3095001E-02    6.9504202E-09
  2.3130000E-02    6.7191537E-09
  2.3165001E-02    7.3418907E-09
  2.3200000E-02    8.6640801E-09
  2.3235001E-02    8.4893514E-09
  2.3270000E-02    7.4247026E-09
  2.3305001E-02    8.3141138E-09
  2.3340000E-02    1.0424263E-08
  2.3375001E-02    1.0462058E-08
  2.3410000E-02    9.1035890E-09
  2.3445001E-02    9.8134612E-09
  2.3480000E-02    1.1958933E-08
  2.3514999E-02    1.2056693E-08
  2.3550000E-02    1.0777014E-08
  2.3584999E-02    1.1593955E-08
  2.3620000E-02    1.3698373E-08
  2.3654999E-02    1.3513828E-08
  2.3690000E-02    1.1972515E-08
  2.3724999E-02    1.2875878E-08
  2.3760000E-02    1.5393800E-08
  2.3794999E-02    1.5630276E-08
  2.3830000E-02    1.4067666E-08
  2.3864999E-02    1.4276014E-08
  2.3900000E-02    1.6119065E-08
  2.3934999E-02    1.6741366E-08
  2.3970000E-02    1.6086021E-08
  2.4005000E-02    1.6042446E-08
  2.4040001E-02    1.6559342E-08
  2.4075000E-02    1.6684300E-08
  2.4110001E-02    1.6960868E-08
  2.4145000E-02    1.7847706E-08
  2.4180001E-02    1.8149093E-08
  2.4215000E-02    1.7288306E-08
  2.4250001E-02    1.6882616E-08
  2.4285000E-02    1.7924028E-08
  2.4320001E-02    1.8673058E-08
  2.4355000E-02    1.7697635E-08
  2.4390001E-02    1.6527988E-08
  2.4425000E-02    1.6822140E-08
  2.4460001E-02    1.7584476E-08
  2.4495000E-02    1.7331523E-08
  2.4529999E-02    1.6414528E-08
  2.4565000E-02    1.5906870E-08
  2.4599999E-02    1.6048125E-08
  2.4635000E-02    1.6028022E-08
  2.4669999E-02    1.4952848E-08
  2.4705000E-02    1.3525744E-08
  2.4739999E-02    1.3226100E-08
  2.4775000E-02    1.3361110E-08
  2.4809999E-02    1.2136516E-08
  2.4845000E-02    1.0295767E-08
  2.4879999E-02    9.7105559E-09
  2.4915000E-02    9.7783843E-09
  2.4950000E-02    8.8369472E-09
  2.4985000E-02    7.1330080E-09
  2.5020000E-02    5.8306902E-09
  2.5055001E-02    4.8019340E-09
  2.5090000E-02    3.2021474E-09
  2.5125001E-02    1.4950180E-09
  2.5160000E-02    6.8017264E-10
  2.5195001E-02   -4.5900181E-10
  2.5230000E-02   -3.3040759E-09
  2.5265001E-02   -5.3589697E-09
  2.5300000E-02   -4.7433519E-09
  2.5335001E-02   -5.3693650E-09
  2.5370000E-02   -9.4971222E-09
  2.5405001E-02   -1.2300049E-08
  2.5440000E-02   -1.1656109E-08
  2.5474999E-02   -1.2723524E-08
  2.5510000E-02   -1.7201465E-08
  2.5544999E-02   -2.0003410E-08
  2.5580000E-02   -1.9408615E-08
  2.5614999E-02   -1.9965933E-08
  2.5650000E-02   -2.3864340E-08
  2.5684999E-02   -2.7012307E-08
  2.5720000E-02   -2.6486804E-08
  2.5754999E-02   -2.6441283E-08
  2.5790000E-02   -3.0391693E-08
  2.5824999E-02   -3.3819596E-08
  2.5860000E-02   -3.3645165E-08
  2.5895000E-02   -3.4799477E-08
  2.5930000E-02   -3.8413376E-08
  2.5965000E-02   -3.9073683E-08
  2.6000001E-02   -3.8179927E-08
  2.6035000E-02   -4.1163609E-08
  2.6070001E-02   -4.4479442E-08
  2.6105000E-02   -4.3077982E-08
  2.6140001E-02   -4.1396557E-08
  2.6175000E-02   -4.4334499E-08
  2.6210001E-02   -4.8334034E-08
  2.6245000E-02   -4.8175441E-08
  2.6280001E-02   -4.5536211E-08
  2.6315000E-02   -4.6310248E-08
  2.6350001E-02   -4.9944411E-08
  2.6385000E-02   -4.9458460E-08
  2.6419999E-02   -4.5723070E-08
  2.6455000E-02   -4.6284299E-08
  2.6489999E-02   -4.8571476E-08
  2.6525000E-02   -4.5970371E-08
  2.6559999E-02   -4.3491450E-08
  2.6595000E-02   -4.5598430E-08
  2.6629999E-02   -4.5671282E-08
  2.6665000E-02   -4.1819401E-08
  2.6699999E-02   -4.0431118E-08
  2.6735000E-02   -4.1241535E-08
  2.6769999E-02   -3.9047510E-08
  2.6805000E-02   -3.4503881E-08
  2.6839999E-02   -3.1931716E-08
  2.6875000E-02   -3.2380822E-08
  2.6910000E-02   -3.1342164E-08
  2.6945001E-02   -2.5486800E-08
  2.6980000E-02   -2.1151909E-08