 -4.8000002E-03    1.0000000E-24
 -4.7650002E-03    1.0000002E-24
 -4.7300002E-03    1.0000001E-24
 -4.6950001E-03    1.0000000E-24
 -4.6600001E-03    1.0000003E-24
 -4.6250001E-03    1.0000002E-24
 -4.5900000E-03    9.9999992E-25
 -4.5550000E-03    1.0000002E-24
 -4.5200000E-03    1.0000000E-24
 -4.4849999E-03    9.9999992E-25
 -4.4499999E-03    1.0000002E-24
 -4.4149999E-03    1.0000002E-24
 -4.3799998E-03    9.9999963E-25
 -4.3449998E-03    9.9999972E-25
 -4.3100002E-03    1.0000006E-24
 -4.2750002E-03    1.0000002E-24
 -4.2400002E-03    9.9999992E-25
 -4.2050001E-03    1.0000005E-24
 -4.1700001E-03    1.0000006E-24
 -4.1350001E-03    9.9999953E-25
 -4.1000000E-03    9.9999943E-25
 -4.0650000E-03    1.0000004E-24
 -4.0300000E-03    1.0000002E-24
 -3.9949999E-03    9.9999953E-25
 -3.9599999E-03    1.0000003E-24
 -3.9249999E-03    1.0000007E-24
 -3.8900001E-03    9.9999963E-25
 -3.8550000E-03    9.9999963E-25
 -3.8200000E-03    1.0000005E-24
 -3.7849999E-03    1.0000002E-24
 -3.7499999E-03    9.9999972E-25
 -3.7150001E-03    1.0000005E-24
 -3.6800001E-03    1.0000007E-24
 -3.6450000E-03    9.9999963E-25
 -3.6100000E-03    9.9999953E-25
 -3.5750000E-03    1.0000000E-24
 -3.5399999E-03    9.9999992E-25
 -3.5049999E-03    9.9999992E-25
 -3.4700001E-03    1.0000006E-24
 -3.4350001E-03    1.0000005E-24
 -3.4000000E-03    1.0000001E-24
 -3.3650000E-03    9.9999992E-25
 -3.3300000E-03    1.0000000E-24
 -3.2949999E-03    9.9999982E-25
 -3.2599999E-03    9.9999982E-25
 -3.2250001E-03    1.0000002E-24
 -3.1900001E-03    1.0000001E-24
 -3.1550000E-03    1.0000001E-24
 -3.1200000E-03    1.0000004E-24
 -3.0850000E-03    1.0000004E-24
 -3.0499999E-03    9.9999972E-25
 -3.0149999E-03    9.9999992E-25
 -2.9800001E-03    1.0000007E-24
 -2.9450001E-03    1.0000000E-24
 -2.9100000E-03    9.9999972E-25
 -2.8750000E-03    1.0000003E-24
 -2.8400000E-03    1.0000002E-24
 -2.8049999E-03    9.9999982E-25
 -2.7699999E-03    1.0000002E-24
 -2.7350001E-03    1.0000007E-24
 -2.7000001E-03    1.0000003E-24
 -2.6650000E-03    9.9999943E-25
 -2.6300000E-03    9.9999963E-25
 -2.5950000E-03    1.0000002E-24
 -2.5599999E-03    1.0000003E-24
 -2.5249999E-03    1.0000001E-24
 -2.4900001E-03    1.0000002E-24
 -2.4550001E-03    1.0000004E-24
 -2.4200000E-03    1.0000005E-24
 -2.3850000E-03    1.0000002E-24
 -2.3500000E-03    9.9999992E-25
 -2.3149999E-03    9.9999943E-25
 -2.2799999E-03    9.9999874E-25
 -2.2450001E-03    9.9999953E-25
 -2.2100001E-03    1.0000008E-24
 -2.1750000E-03    1.0000005E-24
 -2.1400000E-03    9.9999972E-25
 -2.1050000E-03    1.0000005E-24
 -2.0699999E-03    1.0000008E-24
 -2.0349999E-03    1.0000000E-24
 -2.0000001E-03    9.9999972E-25
 -1.9650001E-03    1.0000003E-24
 -1.9300000E-03    1.0000006E-24
 -1.8950000E-03    1.0000005E-24
 -1.8600000E-03    9.9999982E-25
 -1.8250000E-03    9.9999982E-25
 -1.7900000E-03    1.0000006E-24
 -1.7550000E-03    1.0000001E-24
 -1.7199999E-03    9.9999933E-25
 -1.6850000E-03    1.0000006E-24
 -1.6500000E-03    1.0000013E-24
 -1.6150000E-03    9.9999903E-25
 -1.5800000E-03    9.9999785E-25
 -1.5450000E-03    1.0000001E-24
 -1.5100000E-03    1.0000010E-24
 -1.4750001E-03    9.9999972E-25
 -1.4400000E-03    1.0000000E-24
 -1.4050000E-03    1.0000009E-24
 -1.3700000E-03    1.0000003E-24
 -1.3350000E-03    9.9999982E-25
 -1.3000000E-03    9.9999992E-25
 -1.2650000E-03    1.0000001E-24
 -1.2300001E-03    9.9999992E-25
 -1.1950000E-03    1.0000000E-24
 -1.1600000E-03    9.9999982E-25
 -1.1250000E-03    9.9999923E-25
 -1.0900000E-03    1.0000002E-24
 -1.0550000E-03    1.0000013E-24
 -1.0200000E-03    9.9999992E-25
 -9.8500005E-04    9.9999913E-25
 -9.5000002E-04    1.0000005E-24
 -9.1499998E-04    1.0000002E-24
 -8.8000001E-04    9.9999893E-25
 -8.4499997E-04    9.9999953E-25
 -8.1000000E-04    1.0000005E-24
 -7.7500002E-04    1.0000002E-24
 -7.3999999E-04    1.0000003E-24
 -7.0500001E-04    1.0000004E-24
 -6.6999998E-04    1.0000000E-24
 -6.3500000E-04    1.0000006E-24
 -6.0000003E-04    1.0000004E-24
 -5.6499999E-04    9.9999923E-25
 -5.3000002E-04    1.0000005E-24
 -4.9499999E-04    1.0000015E-24
 -4.6000001E-04    9.9999992E-25
 -4.2500001E-04    9.9999943E-25
 -3.9000000E-04    1.0000011E-24
 -3.5500000E-04    1.0000006E-24
 -3.1999999E-04    9.9999854E-25
 -2.8499999E-04    9.9999884E-25
 -2.5000001E-04    1.0000008E-24
 -2.1499999E-04    1.0000001E-24
 -1.8000000E-04    9.9999884E-25
 -1.4500000E-04    9.9999992E-25
 -1.1000000E-04    1.0000006E-24
 -7.5000004E-05    9.9999972E-25
 -3.9999999E-05    9.9999992E-25
 -4.9999999E-06    1.0000013E-24
  2.9999999E-05    1.0000009E-24
  6.5000000E-05    9.9999982E-25
  9.9999997E-05    9.9999982E-25
  1.3499999E-04    9.9999963E-25
  1.7000000E-04    9.9999943E-25
  2.0500000E-04    1.0000002E-24
  2.3999999E-04    1.0000001E-24
  2.7500000E-04    1.0000002E-24
  3.1000000E-04    1.0000010E-24
  3.4500001E-04    1.0000001E-24
  3.8000001E-04    9.9999844E-25
  4.1499999E-04    1.0000000E-24
  4.4999999E-04    1.0000010E-24
  4.8500000E-04    9.9999923E-25
  5.2000000E-04    9.9999923E-25
  5.5499998E-04    1.0000014E-24
  5.9000001E-04    1.0000012E-24
  6.2499999E-04    1.0000003E-24
  6.6000002E-04    1.0000003E-24
  6.9500000E-04    9.9999953E-25
  7.3000003E-04    9.9999893E-25
  7.6500000E-04    9.9999992E-25
  7.9999998E-04    1.0000005E-24
  8.3500001E-04    1.0000003E-24
  8.6999999E-04    1.0000003E-24
  9.0500002E-04    1.0000005E-24
  9.4000000E-04    1.0000005E-24
  9.7499997E-04    9.9999982E-25
  1.0100000E-03    1.0000001E-24
  1.0450000E-03    1.0000013E-24
  1.0800000E-03    1.0000004E-24
  1.1150000E-03    9.9999824E-25
  1.1500000E-03    9.9999903E-25
  1.1849999E-03    1.0000009E-24
  1.2200000E-03    9.9999982E-25
  1.2550000E-03    9.9999923E-25
  1.2900000E-03    1.0000012E-24
  1.3250000E-03    1.0000012E-24
  1.3600000E-03    9.9999913E-25
  1.3950000E-03    9.9999923E-25
  1.4299999E-03    1.0000005E-24
  1.4650000E-03    1.0000004E-24
  1.5000000E-03    1.0000001E-24
  1.5350000E-03    9.9999972E-25
  1.5700000E-03    9.9999963E-25
  1.6050000E-03    1.0000005E-24
  1.6400000E-03    1.0000009E-24
  1.6749999E-03    9.9999972E-25
  1.7100000E-03    9.9999963E-25
  1.7450000E-03    1.0000004E-24
  1.7800000E-03    1.0000001E-24
  1.8150000E-03    9.9999933E-25
  1.8500000E-03    1.0000003E-24
  1.8850000E-03    1.0000018E-24
  1.9200000E-03    1.0000007E-24
  1.9550000E-03    9.9999982E-25
  1.9900000E-03    1.0000004E-24
  2.0250001E-03    9.9999992E-25
  2.0600001E-03    9.9999953E-25
  2.0949999E-03    1.0000006E-24
  2.1299999E-03    9.9999972E-25
  2.1650000E-03    9.9999874E-25
  2.2000000E-03    1.0000015E-24
  2.2350000E-03    1.0000016E-24
  2.2700001E-03    9.9999854E-25
  2.3050001E-03    9.9999893E-25
  2.3399999E-03    1.0000018E-24
  2.3749999E-03    1.0000000E-24
  2.4100000E-03    9.9999795E-25
  2.4450000E-03    1.0000006E-24
  2.4800000E-03    1.0000016E-24
  2.5150001E-03    9.9999903E-25
  2.5500001E-03    9.9999953E-25
  2.5849999E-03    1.0000020E-24
  2.6199999E-03    1.0000008E-24
  2.6550000E-03    9.9999844E-25
  2.6900000E-03    9.9999824E-25
  2.7250000E-03    9.9999963E-25
  2.7600001E-03    1.0000001E-24
  2.7950001E-03    1.0000007E-24
  2.8299999E-03    1.0000014E-24
  2.8649999E-03    1.0000016E-24
  2.9000000E-03    1.0000006E-24
  2.9350000E-03    9.9999953E-25
  2.9700000E-03    9.9999963E-25
  3.0050001E-03    9.9999923E-25
  3.0400001E-03    9.9999972E-25
  3.0749999E-03    1.0000003E-24
  3.1099999E-03    1.0000006E-24
  3.1450000E-03    1.0000009E-24
  3.1800000E-03    9.9999992E-25
  3.2150000E-03    9.9999874E-25
  3.2500001E-03    9.9999943E-25
  3.2850001E-03    1.0000002E-24
  3.3199999E-03    9.9999982E-25
  3.3549999E-03    1.0000006E-24
  3.3900000E-03    1.0000016E-24
  3.4250000E-03    9.9999992E-25
  3.4600000E-03    9.9999884E-25
  3.4950001E-03    1.0000005E-24
  3.5300001E-03    1.0000003E-24
  3.5649999E-03    9.9999884E-25
  3.5999999E-03    1.0000004E-24
  3.6350000E-03    1.0000013E-24
  3.6700000E-03    9.9999923E-25
  3.7050000E-03    9.9999903E-25
  3.7400001E-03    1.0000004E-24
  3.7750001E-03    9.9999943E-25
  3.8099999E-03    9.9999903E-25
  3.8449999E-03    1.0000008E-24
  3.8800000E-03    1.0000021E-24
  3.9149998E-03    1.0000005E-24
  3.9499998E-03    9.9999923E-25
  3.9849998E-03    1.0000005E-24
  4.0199999E-03    1.0000011E-24
  4.0549999E-03    9.9999943E-25
  4.0899999E-03    9.9999913E-25
  4.1250000E-03    1.0000009E-24
  4.1600000E-03    1.0000003E-24
  4.1950000E-03    9.9999884E-25
  4.2300001E-03    1.0000003E-24
  4.2650001E-03    1.0000009E-24
  4.3000001E-03    9.9999982E-25
  4.3350002E-03    9.9999953E-25
  4.3700002E-03    9.9999933E-25
  4.4049998E-03    9.9999972E-25
  4.4399998E-03    1.0000009E-24
  4.4749998E-03    1.0000004E-24
  4.5099999E-03    9.9999982E-25
  4.5449999E-03    1.0000010E-24
  4.5799999E-03    9.9999992E-25
  4.6150000E-03    9.9999765E-25
  4.6500000E-03    9.9999943E-25
  4.6850001E-03    1.0000004E-24
  4.7200001E-03    9.9999903E-25
  4.7550001E-03    1.0000009E-24
  4.7900002E-03    1.0000028E-24
  4.8250002E-03    9.9999982E-25
  4.8600002E-03    9.9999884E-25
  4.8949998E-03    1.0000016E-24
  4.9299998E-03    1.0000004E-24
  4.9649999E-03    9.9999854E-25
  4.9999999E-03    9.9999982E-25
  5.0349999E-03    9.9999943E-25
  5.0700000E-03    9.9999874E-25
  5.1050000E-03    1.0000018E-24
  5.1400000E-03    1.0000029E-24
  5.1750001E-03    9.9999903E-25
  5.2100001E-03    9.9999864E-25
  5.2450001E-03    1.0000013E-24
  5.2800002E-03    9.9999903E-25
  5.3150002E-03    9.9999677E-25
  5.3500002E-03    1.0000007E-24
  5.3849998E-03    1.0000027E-24
  5.4199998E-03    9.9999893E-25
  5.4549999E-03    9.9999963E-25
  5.4899999E-03    1.0000032E-24
  5.5249999E-03    1.0000003E-24
  5.5600000E-03    9.9999696E-25
  5.5950000E-03    1.0000005E-24
  5.6300000E-03    1.0000031E-24
  5.6650001E-03    9.9999933E-25
  5.7000001E-03    9.9999795E-25
  5.7350001E-03    1.0000021E-24
  5.7700002E-03    1.0000016E-24
  5.8050002E-03    9.9999755E-25
  5.8400002E-03    9.9999913E-25
  5.8749998E-03    1.0000017E-24
  5.9099998E-03    9.9999864E-25
  5.9449999E-03    9.9999765E-25
  5.9799999E-03    1.0000016E-24
  6.0149999E-03    1.0000016E-24
  6.0500000E-03    9.9999864E-25
  6.0850000E-03    9.9999943E-25
  6.1200000E-03    1.0000000E-24
  6.1550001E-03    9.9999874E-25
  6.1900001E-03    1.0000006E-24
  6.2250001E-03    1.0000024E-24
  6.2600002E-03    9.9999982E-25
  6.2950002E-03    9.9999893E-25
  6.3299998E-03    1.0000013E-24
  6.3649998E-03    1.0000006E-24
  6.3999998E-03    9.9999844E-25
  6.4349999E-03    1.0000006E-24
  6.4699999E-03    1.0000020E-24
  6.5049999E-03    9.9999893E-25
  6.5400000E-03    9.9999864E-25
  6.5750000E-03    1.0000019E-24
  6.6100000E-03    1.0000007E-24
  6.6450001E-03    9.9999805E-25
  6.6800001E-03    1.0000005E-24
  6.7150001E-03    1.0000025E-24
  6.7500002E-03    9.9999923E-25
  6.7850002E-03    9.9999854E-25
  6.8199998E-03    1.0000012E-24
  6.8549998E-03    1.0000007E-24
  6.8899998E-03    9.9999893E-25
  6.9249999E-03    9.9999953E-25
  6.9599999E-03    9.9999972E-25
  6.9949999E-03    9.9999982E-25
  7.0300000E-03    1.0000011E-24
  7.0650000E-03    1.0000006E-24
  7.1000000E-03    9.9999992E-25
  7.1350001E-03    1.0000008E-24
  7.1700001E-03    1.0000006E-24
  7.2050001E-03    9.9999913E-25
  7.2400002E-03    9.9999933E-25
  7.2750002E-03    9.9999982E-25
  7.3099998E-03    9.9999943E-25
  7.3449998E-03    9.9999972E-25
  7.3799998E-03    1.0000007E-24
  7.4149999E-03    1.0000008E-24
  7.4499999E-03    1.0000005E-24
  7.4850000E-03    1.0000000E-24
  7.5200000E-03    9.9999982E-25
  7.5550000E-03    1.0000001E-24
  7.5900001E-03    9.9999992E-25
  7.6250001E-03    1.0000001E-24
  7.6600001E-03    1.0000001E-24
  7.6950002E-03    9.9999834E-25
  7.7300002E-03    9.9999775E-25
  7.7650002E-03    9.9999992E-25
  7.7999998E-03    1.0000015E-24
  7.8349998E-03    1.0000000E-24
  7.8699999E-03    1.0000003E-24
  7.9049999E-03    1.0000024E-24
  7.9399999E-03    1.0000012E-24
  7.9750000E-03    9.9999844E-25
  8.0100000E-03    9.9999864E-25
  8.0450000E-03    1.0000003E-24
  8.0800001E-03    1.0000000E-24
  8.1150001E-03    9.9999953E-25
  8.1500001E-03    1.0000006E-24
  8.1850002E-03    1.0000015E-24
  8.2200002E-03    9.9999972E-25
  8.2550002E-03    9.9999785E-25
  8.2900003E-03    9.9999884E-25
  8.3250003E-03    1.0000007E-24
  8.3600003E-03    1.0000007E-24
  8.3950004E-03    1.0000008E-24
  8.4300004E-03    1.0000016E-24
  8.4650004E-03    1.0000008E-24
  8.5000005E-03    1.0000000E-24
  8.5349996E-03    9.9999933E-25
  8.5699996E-03    9.9999736E-25
  8.6049996E-03    9.9999844E-25
  8.6399997E-03    1.0000024E-24
  8.6749997E-03    1.0000012E-24
  8.7099997E-03    9.9999765E-25
  8.7449998E-03    1.0000000E-24
  8.7799998E-03    1.0000020E-24
  8.8149998E-03    9.9999903E-25
  8.8499999E-03    9.9999864E-25
  8.8849999E-03    1.0000007E-24
  8.9199999E-03    1.0000000E-24
  8.9550000E-03    1.0000005E-24
  8.9900000E-03    1.0000016E-24
  9.0250000E-03    9.9999824E-25
  9.0600001E-03    9.9999844E-25
  9.0950001E-03    1.0000041E-24
  9.1300001E-03    1.0000041E-24
  9.1650002E-03    9.9999450E-25
  9.2000002E-03    9.9999193E-25
  9.2350002E-03    1.0000044E-24
  9.2700003E-03    1.0000132E-24
  9.3050003E-03    9.9999943E-25
  9.3400003E-03    9.9998000E-25
  9.3750004E-03    9.9999124E-25
  9.4100004E-03    1.0000250E-24
  9.4450004E-03    1.0000252E-24
  9.4799995E-03    9.9997132E-25
  9.5149996E-03    9.9994874E-25
  9.5499996E-03    1.0000231E-24
  9.5849996E-03    1.0000813E-24
  9.6199997E-03    9.9997892E-25
  9.6549997E-03    9.9986148E-25
  9.6899997E-03    9.9997103E-25
  9.7249998E-03    1.0001794E-24
  9.7599998E-03    1.0000957E-24
  9.7949998E-03    9.9977302E-25
  9.8299999E-03    9.9977243E-25
  9.8649999E-03    1.0002663E-24
  9.8999999E-03    1.0004306E-24
  9.9350000E-03    9.9977874E-25
  9.9700000E-03    9.9929576E-25
  1.0005000E-02    1.0000481E-24
  1.0040000E-02    1.0010285E-24
  1.0075000E-02    1.0002793E-24
  1.0110000E-02    9.9855601E-25
  1.0145000E-02    9.9898002E-25
  1.0180000E-02    1.0017211E-24
  1.0215000E-02    1.0021796E-24
  1.0250000E-02    9.9835850E-25
  1.0285000E-02    9.9615639E-25
  1.0320000E-02    1.0009774E-24
  1.0355000E-02    1.0060927E-24
  1.0390000E-02    1.0008285E-24
  1.0425000E-02    9.9147372E-25
  1.0460000E-02    9.9562322E-25
  1.0495000E-02    1.0108821E-24
  1.0530000E-02    1.0105582E-24
  1.0565000E-02    9.8800056E-25
  1.0600000E-02    9.7962138E-25
  1.0635000E-02    1.0099500E-24
  1.0670000E-02    1.0331571E-24
  1.0705000E-02    9.9761736E-25
  1.0740000E-02    9.5127869E-25
  1.0775000E-02    9.8504647E-25
  1.0810000E-02    1.0632868E-24
  1.0845000E-02    1.0454449E-24
  1.0880000E-02    9.2547712E-25
  1.0915000E-02    9.0452340E-25
  1.0950000E-02    1.0722488E-24
  1.0985000E-02    1.1668755E-24
  1.1020000E-02    9.5863383E-25
  1.1055000E-02    7.4506261E-25
  1.1090000E-02    9.6420585E-25
  1.1125000E-02    1.3501589E-24
  1.1160000E-02    1.1850359E-24
  1.1195000E-02    5.7037740E-25
  1.1230000E-02    5.7584361E-25
  1.1265000E-02    1.4612313E-24
  1.1300000E-02    1.7855200E-24
  1.1335000E-02    6.3770303E-25
  1.1370000E-02   -2.5234573E-25
  1.1405000E-02    1.0483102E-24
  1.1440000E-02    2.7881421E-24
  1.1475000E-02    1.5999053E-24
  1.1510000E-02   -1.3044881E-24
  1.1545000E-02   -7.2055383E-25
  1.1580000E-02    3.6124016E-24
  1.1615000E-02    4.4082210E-24
  1.1650000E-02   -1.4387508E-24
  1.1685000E-02   -4.7250185E-24
  1.1720000E-02    2.3033271E-24
  1.1755000E-02    9.5548087E-24
  1.1790000E-02    2.3711841E-24
  1.1825000E-02   -1.0452391E-23
  1.1860000E-02   -5.1867151E-24
  1.1895000E-02    1.4683090E-23
  1.1930000E-02    1.4694073E-23
  1.1965000E-02   -1.2976690E-23
  1.2000000E-02   -2.3262457E-23
  1.2035000E-02    1.1402301E-23
  1.2070000E-02    3.8560985E-23
  1.2105000E-02    5.5109635E-25
  1.2140000E-02   -5.1205293E-23
  1.2175000E-02   -1.7692276E-23
  1.2210000E-02    6.6193104E-23
  1.2245000E-02    5.0910972E-23
  1.2280000E-02   -7.0250279E-23
  1.2315000E-02   -9.4180475E-23
  1.2350000E-02    6.3638577E-23
  1.2385000E-02    1.5486444E-22
  1.2420000E-02   -2.7946139E-23
  1.2455000E-02   -2.2049086E-22
  1.2490000E-02   -4.1477754E-23
  1.2525000E-02    2.8765463E-22
  1.2560000E-02    1.6445462E-22
  1.2595000E-02   -3.2943839E-22
  1.2630000E-02   -3.4348238E-22
  1.2665000E-02    3.2294380E-22
  1.2700000E-02    5.8703232E-22
  1.2735000E-02   -2.1884940E-22
  1.2770000E-02   -8.7360299E-22
  1.2805000E-02   -2.5340208E-23
  1.2840000E-02    1.1708670E-21
  1.2875000E-02    4.6796688E-22
  1.2910000E-02   -1.4021994E-21
  1.2945000E-02   -1.1452047E-21
  1.2980000E-02    1.4648120E-21
  1.3015000E-02    2.0773345E-21
  1.3050000E-02   -1.2006856E-21
  1.3085000E-02   -3.2201445E-21
  1.3120000E-02    4.2383434E-22
  1.3155000E-02    4.4529960E-21
  1.3190000E-02    1.0790099E-21
  1.3225000E-02   -5.5240127E-21
  1.3260000E-02   -3.4625207E-21
  1.3295000E-02    6.0652974E-21
  1.3330000E-02    6.8381567E-21
  1.3365000E-02   -5.5256598E-21
  1.3400000E-02   -1.1096456E-20
  1.3435000E-02    3.2411406E-21
  1.3470000E-02    1.5853564E-20
  1.3505000E-02    1.5345550E-21
  1.3540000E-02   -2.0292230E-20
  1.3575000E-02   -9.4321580E-21
  1.3610000E-02    2.3189131E-20
  1.3645000E-02    2.0881427E-20
  1.3680000E-02   -2.2695923E-20
  1.3715000E-02   -3.5673027E-20
  1.3750000E-02    1.6517939E-20
  1.3785000E-02    5.2693848E-20
  1.3820000E-02   -2.2159953E-21
  1.3855000E-02   -6.9511826E-20
  1.3890000E-02   -2.2571195E-20
  1.3925000E-02    8.2126026E-20
  1.3960000E-02    5.9337646E-20
  1.3995000E-02   -8.4818505E-20
  1.4030000E-02   -1.0801328E-19
  1.4065000E-02    6.9923109E-20
  1.4100000E-02    1.6508205E-19
  1.4135000E-02   -2.9793537E-20
  1.4170000E-02   -2.2402900E-19
  1.4205000E-02   -4.4124780E-20
  1.4240000E-02    2.7181747E-19
  1.4275000E-02    1.5618204E-19
  1.4310000E-02   -2.9168513E-19
  1.4345000E-02   -3.0723605E-19
  1.4380000E-02    2.6026656E-19
  1.4415000E-02    4.8818370E-19
  1.4450000E-02   -1.5320017E-19
  1.4485000E-02   -6.7937802E-19
  1.4520000E-02   -5.4826830E-20
  1.4555000E-02    8.4467920E-19
  1.4590000E-02    3.8044081E-19
  1.4625000E-02   -9.3210641E-19
  1.4660000E-02   -8.2368272E-19
  1.4695000E-02    8.7859516E-19
  1.4730000E-02    1.3655477E-18
  1.4765000E-02   -6.0788945E-19
  1.4800000E-02   -1.9462522E-18
  1.4835000E-02    4.9193365E-20
  1.4870000E-02    2.4672705E-18
  1.4905000E-02    8.4789409E-19
  1.4940000E-02   -2.7841547E-18
  1.4975000E-02   -2.0941357E-18
  1.5010000E-02    2.7134688E-18
  1.5045000E-02    3.6195128E-18
  1.5080000E-02   -2.0575222E-18
  1.5115000E-02   -5.2766075E-18
  1.5150000E-02    6.1488336E-19
  1.5185000E-02    6.7959496E-18
  1.5220000E-02    1.7524440E-18
  1.5255000E-02   -7.7851609E-18
  1.5290000E-02   -5.0571457E-18
  1.5325000E-02    7.7703105E-18
  1.5360000E-02    9.1283641E-18
  1.5395000E-02   -6.2315937E-18
  1.5430000E-02   -1.3588647E-17
  1.5465000E-02    2.6266287E-18
  1.5500000E-02    1.7696058E-17
  1.5535000E-02    3.3317077E-18
  1.5570000E-02   -2.0485805E-17
  1.5605000E-02   -1.1705459E-17
  1.5640000E-02    2.0722064E-17
  1.5675001E-02    2.2021364E-17
  1.5710000E-02   -1.7117633E-17
  1.5745001E-02   -3.3228424E-17
  1.5780000E-02    8.4565983E-18
  1.5814999E-02    4.3538294E-17
  1.5850000E-02    5.9357840E-18
  1.5884999E-02   -5.0602556E-17
  1.5920000E-02   -2.6126744E-17
  1.5954999E-02    5.1431586E-17
  1.5990000E-02    5.0798836E-17
  1.6024999E-02   -4.3038326E-17
  1.6060000E-02   -7.7284371E-17
  1.6094999E-02    2.2825273E-17
  1.6130000E-02    1.0135798E-16
  1.6164999E-02    1.0605519E-17
  1.6200000E-02   -1.1743912E-16
  1.6235000E-02   -5.6827063E-17
  1.6270000E-02    1.1887415E-16
  1.6305000E-02    1.1237401E-16
  1.6340001E-02   -9.9330971E-17
  1.6375000E-02   -1.7104253E-16
  1.6410001E-02    5.3403098E-17
  1.6445000E-02    2.2268478E-16
  1.6480001E-02    2.0696921E-17
  1.6515000E-02   -2.5542977E-16
  1.6550001E-02   -1.2106161E-16
  1.6585000E-02    2.5509451E-16
  1.6620001E-02    2.3886321E-16
  1.6655000E-02   -2.0919359E-16
  1.6690001E-02   -3.5950397E-16
  1.6725000E-02    1.0856401E-16
  1.6759999E-02    4.6132130E-16
  1.6795000E-02    4.8426895E-17
  1.6829999E-02   -5.1912881E-16
  1.6865000E-02   -2.5454383E-16
  1.6899999E-02    5.0573839E-16
  1.6935000E-02    4.8872711E-16
  1.6969999E-02   -3.9805180E-16
  1.7005000E-02   -7.1747100E-16
  1.7039999E-02    1.8384988E-16
  1.7075000E-02    8.9687247E-16
  1.7109999E-02    1.3375529E-16
  1.7145000E-02   -9.7825286E-16
  1.7180000E-02   -5.3194336E-16
  1.7215000E-02    9.1265280E-16
  1.7250000E-02    9.6184530E-16
  1.7285001E-02   -6.6567642E-16
  1.7320000E-02   -1.3552546E-15
  1.7355001E-02    2.2705359E-16
  1.7390000E-02    1.6282597E-15
  1.7425001E-02    3.8196935E-16
  1.7460000E-02   -1.6921113E-15
  1.7495001E-02   -1.1005842E-15
  1.7530000E-02    1.4699702E-15
  1.7565001E-02    1.8246595E-15
  1.7600000E-02   -9.2199219E-16
  1.7635001E-02   -2.4186420E-15
  1.7670000E-02    5.8683111E-17
  1.7704999E-02    2.7323388E-15
  1.7740000E-02    1.0468043E-15
  1.7774999E-02   -2.6213055E-15
  1.7810000E-02   -2.2459852E-15
  1.7844999E-02    1.9909132E-15
  1.7880000E-02    3.3310149E-15
  1.7914999E-02   -8.2137256E-16
  1.7950000E-02   -4.0529641E-15
  1.7984999E-02   -8.0521070E-16
  1.8020000E-02    4.1637141E-15
  1.8054999E-02    2.6899439E-15
  1.8090000E-02   -3.4647487E-15
  1.8124999E-02   -4.5071449E-15
  1.8160000E-02    1.8770013E-15
  1.8195000E-02    5.8661097E-15
  1.8230001E-02    5.2236194E-16
  1.8265000E-02   -6.3368610E-15
  1.8300001E-02   -3.4556374E-15
  1.8335000E-02    5.5582412E-15
  1.8370001E-02    6.4454007E-15
  1.8405000E-02   -3.3284973E-15
  1.8440001E-02   -8.8638669E-15
  1.8475000E-02   -3.2187734E-16
  1.8510001E-02    9.9872545E-15
  1.8545000E-02    5.0224166E-15
  1.8580001E-02   -9.1604216E-15
  1.8615000E-02   -1.0076473E-14
  1.8650001E-02    5.9102952E-15
  1.8685000E-02    1.4441571E-14
  1.8719999E-02   -2.0510396E-16
  1.8755000E-02   -1.6962201E-14
  1.8789999E-02   -7.5663522E-15
  1.8825000E-02    1.6412176E-14
  1.8859999E-02    1.6359416E-14
  1.8895000E-02   -1.1872124E-14
  1.8929999E-02   -2.4598452E-14
  1.8965000E-02    2.9628279E-15
  1.8999999E-02    3.0296993E-14
  1.9035000E-02    9.9092623E-15
  1.9069999E-02   -3.1342882E-14
  1.9105000E-02   -2.5362018E-14
  1.9140000E-02    2.5881632E-14
  1.9175000E-02    4.1011577E-14
  1.9210000E-02   -1.2803441E-14
  1.9245001E-02   -5.3638416E-14
  1.9280000E-02   -7.7730994E-15
  1.9315001E-02    5.9582025E-14
  1.9350000E-02    3.4159802E-14
  1.9385001E-02   -5.5352800E-14
  1.9420000E-02   -6.2902632E-14
  1.9455001E-02    3.8445602E-14
  1.9490000E-02    8.9050817E-14
  1.9525001E-02   -8.0345293E-15
  1.9560000E-02   -1.0655988E-13
  1.9595001E-02   -3.4251556E-14
  1.9630000E-02    1.0917284E-13
  1.9664999E-02    8.3846199E-14
  1.9700000E-02   -9.1734325E-14
  1.9734999E-02   -1.3342247E-13
  1.9770000E-02    5.1429784E-14
  1.9804999E-02    1.7339517E-13
  1.9840000E-02    1.0827805E-14
  1.9874999E-02   -1.9335039E-13
  1.9910000E-02   -8.9630269E-14
  1.9944999E-02    1.8377914E-13
  1.9980000E-02    1.7487822E-13
  2.0014999E-02   -1.3816629E-13
  2.0050000E-02   -2.5230846E-13
  2.0085000E-02    5.5310974E-14
  2.0120000E-02    3.0545328E-13
  2.0155000E-02    5.9152769E-14
  2.0190001E-02   -3.1828828E-13
  2.0225000E-02   -1.9212407E-13
  2.0260001E-02    2.7841179E-13
  2.0295000E-02    3.2356542E-13
  2.0330001E-02   -1.8071987E-13
  2.0365000E-02   -4.2916915E-13
  2.0400001E-02    2.9875001E-14
  2.0435000E-02    4.8387374E-13
  2.0470001E-02    1.5803279E-13
  2.0505000E-02   -4.6714119E-13
  2.0540001E-02   -3.5656582E-13
  2.0575000E-02    3.6768968E-13
  2.0609999E-02    5.3165453E-13
  2.0645000E-02   -1.8812211E-13
  2.0679999E-02   -6.4731358E-13
  2.0715000E-02   -5.3056911E-14
  2.0749999E-02    6.7240977E-13
  2.0785000E-02    3.2200525E-13
  2.0819999E-02   -5.8819171E-13
  2.0855000E-02   -5.7388539E-13
  2.0889999E-02    3.9421298E-13
  2.0925000E-02    7.6005819E-13
  2.0959999E-02   -1.1179384E-13
  2.0995000E-02   -8.3797986E-13
  2.1029999E-02   -2.1722888E-13
  2.1065000E-02    7.8093191E-13
  2.1100000E-02    5.3598873E-13
  2.1135001E-02   -5.8643883E-13
  2.1170000E-02   -7.8299520E-13
  2.1205001E-02    2.8000952E-13
  2.1240000E-02    9.0475663E-13
  2.1275001E-02    8.6572493E-14
  2.1310000E-02   -8.6879581E-13
  2.1345001E-02   -4.4350247E-13
  2.1380000E-02    6.7358939E-13
  2.1415001E-02    7.1642605E-13
  2.1450000E-02   -3.5296990E-13
  2.1485001E-02   -8.4336493E-13
  2.1520000E-02   -2.7836682E-14
  2.1555001E-02    7.9047592E-13
  2.1590000E-02    3.8370611E-13
  2.1624999E-02   -5.6367004E-13
  2.1660000E-02   -6.2796291E-13
  2.1694999E-02    2.1157043E-13
  2.1730000E-02    6.9305661E-13
  2.1764999E-02    1.8081688E-13
  2.1800000E-02   -5.5015064E-13
  2.1834999E-02   -5.0958418E-13
  2.1870000E-02    2.1996929E-13
  2.1904999E-02    6.7424419E-13
  2.1940000E-02    2.2494083E-13
  2.1974999E-02   -6.0438758E-13
  2.2010000E-02   -6.7262070E-13
  2.2045000E-02    2.8013502E-13
  2.2080000E-02    9.9330320E-13
  2.2115000E-02    2.5532967E-13
  2.2150001E-02   -1.0698532E-12
  2.2185000E-02   -8.9903741E-13
  2.2220001E-02    8.2652727E-13
  2.2255000E-02    1.5039866E-12
  2.2290001E-02   -2.5295586E-13
  2.2325000E-02   -1.9084046E-12
  2.2360001E-02   -5.8579606E-13
  2.2395000E-02    1.9699353E-12
  2.2430001E-02    1.5540964E-12
  2.2465000E-02   -1.5998752E-12
  2.2500001E-02   -2.4679551E-12
  2.2535000E-02    7.8657333E-13
  2.2569999E-02    3.1269932E-12
  2.2605000E-02    3.9343566E-13
  2.2639999E-02   -3.3536813E-12
  2.2675000E-02   -1.7832577E-12
  2.2709999E-02    3.0281650E-12
  2.2745000E-02    3.1674108E-12
  2.2779999E-02   -2.1151000E-12
  2.2815000E-02   -4.3062598E-12
  2.2849999E-02    6.7471864E-13
  2.2885000E-02    4.9734253E-12
  2.2919999E-02    1.1398586E-12
  2.2955000E-02   -4.9933222E-12
  2.2990000E-02   -3.1011834E-12
  2.3025000E-02    4.2694060E-12
  2.3060000E-02    4.9345961E-12
  2.3095001E-02   -2.8041731E-12
  2.3130000E-02   -6.3535245E-12
  2.3165001E-02    7.0530111E-13
  2.3200000E-02    7.0945914E-12
  2.3235001E-02    1.8164685E-12
  2.3270000E-02   -6.9556847E-12
  2.3305001E-02   -4.4635337E-12
  2.3340000E-02    5.8290781E-12
  2.3375001E-02    6.8770155E-12
  2.3410000E-02   -3.7314908E-12
  2.3445001E-02   -8.6767087E-12
  2.3480000E-02    8.2201954E-13
  2.3514999E-02    9.5092779E-12
  2.3550000E-02    2.5908668E-12
  2.3584999E-02   -9.1099541E-12
  2.3620000E-02   -6.0684253E-12
  2.3654999E-02    7.3636392E-12
  2.3690000E-02    9.0872570E-12
  2.3724999E-02   -4.3568352E-12
  2.3760000E-02   -1.1115578E-11
  2.3794999E-02    4.0050732E-13
  2.3830000E-02    1.1706015E-11
  2.3864999E-02    3.9822009E-12
  2.3900000E-02   -1.0596897E-11
  2.3934999E-02   -8.1165760E-12
  2.3970000E-02    7.7986437E-12
  2.4005000E-02    1.1286760E-11
  2.4040001E-02   -3.6349114E-12
  2.4075000E-02   -1.2877178E-11
  2.4110001E-02   -1.2832443E-12
  2.4145000E-02    1.2508850E-11
  2.4180001E-02    6.1465000E-12
  2.4215000E-02   -1.0145119E-11
  2.4250001E-02   -1.0092730E-11
  2.4285000E-02    6.1376225E-12
  2.4320001E-02    1.2387531E-11
  2.4355000E-02   -1.1866984E-12
  2.4390001E-02   -1.2600431E-11
  2.4425000E-02   -3.7955342E-12
  2.4460001E-02    1.0712968E-11
  2.4495000E-02    7.8764920E-12
  2.4529999E-02   -7.1357022E-12
  2.4565000E-02   -1.0303814E-11
  2.4599999E-02    2.6332654E-12
  2.4635000E-02    1.0678192E-11
  2.4669999E-02    1.8345785E-12
  2.4705000E-02   -9.0630628E-12
  2.4739999E-02   -5.3460877E-12
  2.4775000E-02    5.9670736E-12
  2.4809999E-02    7.2422840E-12
  2.4845000E-02   -2.2053880E-12
  2.4879999E-02   -7.2712656E-12
  2.4915000E-02   -1.3028508E-12
  2.4950000E-02    5.6303248E-12
  2.4985000E-02    3.7457030E-12
  2.5020000E-02   -2.9244198E-12
  2.5055001E-02   -4.6322512E-12
  2.5090000E-02    2.9696251E-15
  2.5125001E-02    3.9280194E-12
  2.5160000E-02    2.2922734E-12
  2.5195001E-02   -2.0379358E-12
  2.5230000E-02   -3.3584435E-12
  2.5265001E-02   -3.3806278E-13
  2.5300000E-02    2.9607258E-12
  2.5335001E-02    2.3806239E-12
  2.5370000E-02   -1.2978626E-12
  2.5405001E-02   -3.3659111E-12
  2.5440000E-02   -1.0233190E-12
  2.5474999E-02    2.9039386E-12
  2.5510000E-02    3.1688957E-12
  2.5544999E-02   -1.0758894E-12
  2.5580000E-02   -4.3539755E-12
  2.5614999E-02   -1.6162772E-12
  2.5650000E-02    4.0458708E-12
  2.5684999E-02    4.3751916E-12
  2.5720000E-02   -2.1014375E-12
  2.5754999E-02   -6.2645462E-12
  2.5790000E-02   -1.1143361E-12
  2.5824999E-02    6.4747843E-12
  2.5860000E-02    4.7443256E-12
  2.5895000E-02   -4.6339460E-12
  2.5930000E-02   -7.6871001E-12
  2.5965000E-02    9.3472148E-13
  2.6000001E-02    8.8834730E-12
  2.6035000E-02    3.8941203E-12
  2.6070001E-02   -7.5335215E-12
  2.6105000E-02   -8.6328843E-12
  2.6140001E-02    3.3727092E-12
  2.6175000E-02    1.1758233E-11
  2.6210001E-02    3.0525391E-12
  2.6245000E-02   -1.1896779E-11
  2.6280001E-02   -1.0415491E-11
  2.6315000E-02    8.2600532E-12
  2.6350001E-02    1.6901756E-11
  2.6385000E-02   -8.5775430E-13
  2.6419999E-02   -2.0492592E-11
  2.6455000E-02   -9.3027712E-12
  2.6489999E-02    1.9389110E-11
  2.6525000E-02    2.0109862E-11
  2.6559999E-02   -1.2709524E-11
  2.6595000E-02   -2.8746372E-11
  2.6629999E-02    9.9311488E-13
  2.6665000E-02    3.2467879E-11
  2.6699999E-02    1.3837685E-11
  2.6735000E-02   -2.9209937E-11
  2.6769999E-02   -2.8663787E-11
  2.6805000E-02    1.8185986E-11
  2.6839999E-02    3.9537085E-11
  2.6875000E-02   -6.2326067E-13
  2.6910000E-02   -4.2734115E-11
  2.6945001E-02   -2.0093174E-11
  2.6980000E-02    3.6116738E-11