 -4.8000002E-03    1.0000000E-24
 -4.7650002E-03    1.0000002E-24
 -4.7300002E-03    1.0000001E-24
 -4.6950001E-03    1.0000000E-24
 -4.6600001E-03    1.0000001E-24
 -4.6250001E-03    1.0000002E-24
 -4.5900000E-03    1.0000002E-24
 -4.5550000E-03    9.9999992E-25
 -4.5200000E-03    1.0000001E-24
 -4.4849999E-03    1.0000002E-24
 -4.4499999E-03    1.0000001E-24
 -4.4149999E-03    9.9999972E-25
 -4.3799998E-03    1.0000002E-24
 -4.3449998E-03    1.0000004E-24
 -4.3100002E-03    1.0000003E-24
 -4.2750002E-03    1.0000002E-24
 -4.2400002E-03    9.9999992E-25
 -4.2050001E-03    9.9999982E-25
 -4.1700001E-03    1.0000002E-24
 -4.1350001E-03    1.0000001E-24
 -4.1000000E-03    9.9999982E-25
 -4.0650000E-03    1.0000001E-24
 -4.0300000E-03    1.0000002E-24
 -3.9949999E-03    9.9999972E-25
 -3.9599999E-03    9.9999943E-25
 -3.9249999E-03    9.9999982E-25
 -3.8900001E-03    1.0000003E-24
 -3.8550000E-03    1.0000002E-24
 -3.8200000E-03    1.0000003E-24
 -3.7849999E-03    1.0000005E-24
 -3.7499999E-03    1.0000003E-24
 -3.7150001E-03    9.9999992E-25
 -3.6800001E-03    1.0000000E-24
 -3.6450000E-03    1.0000001E-24
 -3.6100000E-03    9.9999992E-25
 -3.5750000E-03    1.0000002E-24
 -3.5399999E-03    1.0000003E-24
 -3.5049999E-03    9.9999963E-25
 -3.4700001E-03    9.9999972E-25
 -3.4350001E-03    1.0000005E-24
 -3.4000000E-03    9.9999982E-25
 -3.3650000E-03    9.9999933E-25
 -3.3300000E-03    1.0000007E-24
 -3.2949999E-03    1.0000006E-24
 -3.2599999E-03    9.9999923E-25
 -3.2250001E-03    9.9999963E-25
 -3.1900001E-03    1.0000008E-24
 -3.1550000E-03    1.0000000E-24
 -3.1200000E-03    9.9999982E-25
 -3.0850000E-03    1.0000011E-24
 -3.0499999E-03    1.0000011E-24
 -3.0149999E-03    9.9999943E-25
 -2.9800001E-03    9.9999933E-25
 -2.9450001E-03    1.0000005E-24
 -2.9100000E-03    1.0000000E-24
 -2.8750000E-03    9.9999923E-25
 -2.8400000E-03    1.0000001E-24
 -2.8049999E-03    1.0000009E-24
 -2.7699999E-03    1.0000000E-24
 -2.7350001E-03    9.9999953E-25
 -2.7000001E-03    1.0000007E-24
 -2.6650000E-03    1.0000006E-24
 -2.6300000E-03    9.9999913E-25
 -2.5950000E-03    9.9999923E-25
 -2.5599999E-03    1.0000004E-24
 -2.5249999E-03    1.0000007E-24
 -2.4900001E-03    1.0000005E-24
 -2.4550001E-03    1.0000006E-24
 -2.4200000E-03    1.0000002E-24
 -2.3850000E-03    9.9999903E-25
 -2.3500000E-03    9.9999943E-25
 -2.3149999E-03    9.9999972E-25
 -2.2799999E-03    9.9999953E-25
 -2.2450001E-03    1.0000005E-24
 -2.2100001E-03    1.0000011E-24
 -2.1750000E-03    9.9999982E-25
 -2.1400000E-03    9.9999893E-25
 -2.1050000E-03    1.0000004E-24
 -2.0699999E-03    1.0000015E-24
 -2.0349999E-03    9.9999953E-25
 -2.0000001E-03    9.9999923E-25
 -1.9650001E-03    1.0000016E-24
 -1.9300000E-03    1.0000011E-24
 -1.8950000E-03    9.9999874E-25
 -1.8600000E-03    1.0000001E-24
 -1.8250000E-03    1.0000016E-24
 -1.7900000E-03    9.9999933E-25
 -1.7550000E-03    9.9999834E-25
 -1.7199999E-03    9.9999972E-25
 -1.6850000E-03    1.0000003E-24
 -1.6500000E-03    1.0000003E-24
 -1.6150000E-03    1.0000004E-24
 -1.5800000E-03    9.9999953E-25
 -1.5450000E-03    9.9999953E-25
 -1.5100000E-03    1.0000006E-24
 -1.4750001E-03    1.0000006E-24
 -1.4400000E-03    1.0000000E-24
 -1.4050000E-03    1.0000007E-24
 -1.3700000E-03    1.0000012E-24
 -1.3350000E-03    9.9999992E-25
 -1.3000000E-03    9.9999893E-25
 -1.2650000E-03    9.9999943E-25
 -1.2300001E-03    1.0000003E-24
 -1.1950000E-03    1.0000000E-24
 -1.1600000E-03    9.9999953E-25
 -1.1250000E-03    1.0000005E-24
 -1.0900000E-03    1.0000013E-24
 -1.0550000E-03    9.9999972E-25
 -1.0200000E-03    9.9999893E-25
 -9.8500005E-04    1.0000001E-24
 -9.5000002E-04    9.9999992E-25
 -9.1499998E-04    9.9999923E-25
 -8.8000001E-04    1.0000004E-24
 -8.4499997E-04    1.0000012E-24
 -8.1000000E-04    9.9999972E-25
 -7.7500002E-04    9.9999933E-25
 -7.3999999E-04    1.0000006E-24
 -7.0500001E-04    1.0000002E-24
 -6.6999998E-04    9.9999864E-25
 -6.3500000E-04    9.9999963E-25
 -6.0000003E-04    1.0000013E-24
 -5.6499999E-04    1.0000002E-24
 -5.3000002E-04    9.9999933E-25
 -4.9499999E-04    1.0000004E-24
 -4.6000001E-04    1.0000007E-24
 -4.2500001E-04    1.0000001E-24
 -3.9000000E-04    1.0000003E-24
 -3.5500000E-04    1.0000001E-24
 -3.1999999E-04    9.9999972E-25
 -2.8499999E-04    9.9999992E-25
 -2.5000001E-04    1.0000001E-24
 -2.1499999E-04    9.9999953E-25
 -1.8000000E-04    9.9999963E-25
 -1.4500000E-04    1.0000002E-24
 -1.1000000E-04    9.9999992E-25
 -7.5000004E-05    9.9999923E-25
 -3.9999999E-05    9.9999982E-25
 -4.9999999E-06    1.0000005E-24
  2.9999999E-05    1.0000001E-24
  6.5000000E-05    9.9999982E-25
  9.9999997E-05    1.0000012E-24
  1.3499999E-04    1.0000013E-24
  1.7000000E-04    9.9999923E-25
  2.0500000E-04    9.9999903E-25
  2.3999999E-04    1.0000002E-24
  2.7500000E-04    9.9999963E-25
  3.1000000E-04    9.9999933E-25
  3.4500001E-04    1.0000010E-24
  3.8000001E-04    1.0000013E-24
  4.1499999E-04    9.9999923E-25
  4.4999999E-04    9.9999913E-25
  4.8500000E-04    1.0000009E-24
  5.2000000E-04    1.0000001E-24
  5.5499998E-04    9.9999805E-25
  5.9000001E-04    9.9999943E-25
  6.2499999E-04    1.0000018E-24
  6.6000002E-04    9.9999992E-25
  6.9500000E-04    9.9999884E-25
  7.3000003E-04    1.0000014E-24
  7.6500000E-04    1.0000010E-24
  7.9999998E-04    9.9999923E-25
  8.3500001E-04    1.0000005E-24
  8.6999999E-04    1.0000003E-24
  9.0500002E-04    9.9999854E-25
  9.4000000E-04    1.0000001E-24
  9.7499997E-04    1.0000015E-24
  1.0100000E-03    9.9999992E-25
  1.0450000E-03    1.0000000E-24
  1.0800000E-03    1.0000008E-24
  1.1150000E-03    9.9999943E-25
  1.1500000E-03    9.9999923E-25
  1.1849999E-03    1.0000004E-24
  1.2200000E-03    1.0000003E-24
  1.2550000E-03    1.0000000E-24
  1.2900000E-03    1.0000002E-24
  1.3250000E-03    1.0000011E-24
  1.3600000E-03    1.0000002E-24
  1.3950000E-03    9.9999824E-25
  1.4299999E-03    9.9999972E-25
  1.4650000E-03    1.0000015E-24
  1.5000000E-03    9.9999982E-25
  1.5350000E-03    9.9999972E-25
  1.5700000E-03    1.0000017E-24
  1.6050000E-03    1.0000001E-24
  1.6400000E-03    9.9999805E-25
  1.6749999E-03    9.9999953E-25
  1.7100000E-03    9.9999992E-25
  1.7450000E-03    9.9999933E-25
  1.7800000E-03    1.0000011E-24
  1.8150000E-03    1.0000010E-24
  1.8500000E-03    9.9999982E-25
  1.8850000E-03    1.0000013E-24
  1.9200000E-03    1.0000010E-24
  1.9550000E-03    9.9999834E-25
  1.9900000E-03    9.9999992E-25
  2.0250001E-03    1.0000020E-24
  2.0600001E-03    9.9999972E-25
  2.0949999E-03    9.9999884E-25
  2.1299999E-03    1.0000004E-24
  2.1650000E-03    1.0000000E-24
  2.2000000E-03    9.9999903E-25
  2.2350000E-03    9.9999982E-25
  2.2700001E-03    1.0000007E-24
  2.3050001E-03    1.0000009E-24
  2.3399999E-03    1.0000002E-24
  2.3749999E-03    9.9999953E-25
  2.4100000E-03    1.0000000E-24
  2.4450000E-03    1.0000002E-24
  2.4800000E-03    9.9999992E-25
  2.5150001E-03    1.0000003E-24
  2.5500001E-03    1.0000007E-24
  2.5849999E-03    1.0000010E-24
  2.6199999E-03    1.0000015E-24
  2.6550000E-03    9.9999963E-25
  2.6900000E-03    9.9999667E-25
  2.7250000E-03    9.9999785E-25
  2.7600001E-03    1.0000008E-24
  2.7950001E-03    1.0000003E-24
  2.8299999E-03    1.0000005E-24
  2.8649999E-03    1.0000024E-24
  2.9000000E-03    1.0000008E-24
  2.9350000E-03    9.9999874E-25
  2.9700000E-03    1.0000003E-24
  3.0050001E-03    1.0000005E-24
  3.0400001E-03    9.9999775E-25
  3.0749999E-03    9.9999785E-25
  3.1099999E-03    1.0000008E-24
  3.1450000E-03    1.0000018E-24
  3.1800000E-03    1.0000004E-24
  3.2150000E-03    1.0000008E-24
  3.2500001E-03    1.0000019E-24
  3.2850001E-03    9.9999963E-25
  3.3199999E-03    9.9999746E-25
  3.3549999E-03    1.0000000E-24
  3.3900000E-03    1.0000019E-24
  3.4250000E-03    1.0000005E-24
  3.4600000E-03    1.0000009E-24
  3.4950001E-03    1.0000019E-24
  3.5300001E-03    9.9999963E-25
  3.5649999E-03    9.9999795E-25
  3.5999999E-03    9.9999874E-25
  3.6350000E-03    9.9999815E-25
  3.6700000E-03    9.9999903E-25
  3.7050000E-03    1.0000021E-24
  3.7400001E-03    1.0000017E-24
  3.7750001E-03    1.0000001E-24
  3.8099999E-03    1.0000011E-24
  3.8449999E-03    1.0000006E-24
  3.8800000E-03    9.9999903E-25
  3.9149998E-03    1.0000000E-24
  3.9499998E-03    9.9999972E-25
  3.9849998E-03    9.9999884E-25
  4.0199999E-03    1.0000011E-24
  4.0549999E-03    1.0000014E-24
  4.0899999E-03    9.9999884E-25
  4.1250000E-03    1.0000001E-24
  4.1600000E-03    1.0000020E-24
  4.1950000E-03    9.9999972E-25
  4.2300001E-03    9.9999824E-25
  4.2650001E-03    1.0000001E-24
  4.3000001E-03    1.0000001E-24
  4.3350002E-03    9.9999884E-25
  4.3700002E-03    1.0000006E-24
  4.4049998E-03    1.0000019E-24
  4.4399998E-03    9.9999893E-25
  4.4749998E-03    9.9999805E-25
  4.5099999E-03    1.0000015E-24
  4.5449999E-03    1.0000014E-24
  4.5799999E-03    9.9999884E-25
  4.6150000E-03    1.0000005E-24
  4.6500000E-03    1.0000014E-24
  4.6850001E-03    9.9999765E-25
  4.7200001E-03    9.9999893E-25
  4.7550001E-03    1.0000036E-24
  4.7900002E-03    1.0000018E-24
  4.8250002E-03    9.9999864E-25
  4.8600002E-03    1.0000009E-24
  4.8949998E-03    1.0000012E-24
  4.9299998E-03    9.9999755E-25
  4.9649999E-03    9.9999844E-25
  4.9999999E-03    1.0000007E-24
  5.0349999E-03    9.9999893E-25
  5.0700000E-03    1.0000004E-24
  5.1050000E-03    1.0000030E-24
  5.1400000E-03    9.9999953E-25
  5.1750001E-03    9.9999815E-25
  5.2100001E-03    1.0000021E-24
  5.2450001E-03    1.0000003E-24
  5.2800002E-03    9.9999657E-25
  5.3150002E-03    1.0000001E-24
  5.3500002E-03    1.0000012E-24
  5.3849998E-03    9.9999903E-25
  5.4199998E-03    1.0000024E-24
  5.4549999E-03    1.0000030E-24
  5.4899999E-03    9.9999746E-25
  5.5249999E-03    9.9999874E-25
  5.5600000E-03    1.0000055E-24
  5.5950000E-03    9.9999913E-25
  5.6300000E-03    9.9999055E-25
  5.6650001E-03    9.9999864E-25
  5.7000001E-03    1.0000157E-24
  5.7350001E-03    1.0000117E-24
  5.7700002E-03    9.9997921E-25
  5.8050002E-03    9.9998355E-25
  5.8400002E-03    1.0000208E-24
  5.8749998E-03    1.0000325E-24
  5.9099998E-03    9.9998720E-25
  5.9449999E-03    9.9994362E-25
  5.9799999E-03    9.9999943E-25
  6.0149999E-03    1.0001054E-24
  6.0500000E-03    1.0000407E-24
  6.0850000E-03    9.9982627E-25
  6.1200000E-03    9.9984570E-25
  6.1550001E-03    1.0002124E-24
  6.1900001E-03    1.0003003E-24
  6.2250001E-03    9.9975991E-25
  6.2600002E-03    9.9945403E-25
  6.2950002E-03    1.0002588E-24
  6.3299998E-03    1.0009574E-24
  6.3649998E-03    9.9994076E-25
  6.3999998E-03    9.9857829E-25
  6.4349999E-03    9.9977874E-25
  6.4699999E-03    1.0022967E-24
  6.5049999E-03    1.0010308E-24
  6.5400000E-03    9.9691804E-25
  6.5750000E-03    9.9714671E-25
  6.6100000E-03    1.0031988E-24
  6.6450001E-03    1.0051281E-24
  6.6800001E-03    9.9628419E-25
  6.7150001E-03    9.9029752E-25
  6.7500002E-03    1.0022936E-24
  6.7850002E-03    1.0165559E-24
  6.8199998E-03    1.0017881E-24
  6.8549998E-03    9.7542118E-25
  6.8899998E-03    9.8963922E-25
  6.9249999E-03    1.0333128E-24
  6.9599999E-03    1.0260896E-24
  6.9949999E-03    9.5823486E-25
  7.0300000E-03    9.4472661E-25
  7.0650000E-03    1.0411009E-24
  7.1000000E-03    1.0978494E-24
  7.1350001E-03    9.6738427E-25
  7.1700001E-03    8.4152003E-25
  7.2050001E-03    9.9003187E-25
  7.2400002E-03    1.2297850E-24
  7.2750002E-03    1.0970161E-24
  7.3099998E-03    6.8473408E-25
  7.3449998E-03    7.4306176E-25
  7.3799998E-03    1.3851394E-24
  7.4149999E-03    1.5174762E-24
  7.4499999E-03    6.1914700E-25
  7.4850000E-03    1.2766420E-25
  7.5200000E-03    1.2549767E-24
  7.5550000E-03    2.3754929E-24
  7.5900001E-03    1.1225141E-24
  7.6250001E-03   -9.5144060E-25
  7.6600001E-03    1.0283539E-25
  7.6950002E-03    3.4899510E-24
  7.7300002E-03    3.2364776E-24
  7.7650002E-03   -1.8072202E-24
  7.7999998E-03   -3.2860433E-24
  7.8349998E-03    3.5051772E-24
  7.8699999E-03    8.1533382E-24
  7.9049999E-03    2.8572166E-26
  7.9399999E-03   -9.6556520E-24
  7.9750000E-03   -1.5046767E-24
  8.0100000E-03    1.5312101E-23
  8.0450000E-03    9.8304265E-24
  8.0800001E-03   -1.6047731E-23
  8.1150001E-03   -1.8041790E-23
  8.1500001E-03    1.7914771E-23
  8.1850002E-03    3.4410659E-23
  8.2200002E-03   -1.0369913E-23
  8.2550002E-03   -5.0770334E-23
  8.2900003E-03   -2.4381876E-24
  8.3250003E-03    7.2867751E-23
  8.3600003E-03    3.2638167E-23
  8.3950004E-03   -8.8308233E-23
  8.4300004E-03   -7.8193969E-23
  8.4650004E-03    9.4926428E-23
  8.5000005E-03    1.4807822E-22
  8.5349996E-03   -7.3972225E-23
  8.5699996E-03   -2.3501063E-22
  8.6049996E-03    1.3947772E-23
  8.6399997E-03    3.3825480E-22
  8.6749997E-03    1.1564802E-22
  8.7099997E-03   -4.2489624E-22
  8.7449998E-03   -3.2328522E-22
  8.7799998E-03    4.6917044E-22
  8.8149998E-03    6.3336493E-22
  8.8499999E-03   -4.0687714E-22
  8.8849999E-03   -1.0335235E-21
  8.9199999E-03    1.6298033E-22
  8.9550000E-03    1.4952713E-21
  8.9900000E-03    3.6014901E-22
  9.0250000E-03   -1.9187323E-21
  9.0600001E-03   -1.2397568E-21
  9.0950001E-03    2.1565683E-21
  9.1300001E-03    2.5499286E-21
  9.1650002E-03   -1.9425943E-21
  9.2000002E-03   -4.2549318E-21
  9.2350002E-03    1.0189371E-21
  9.2700003E-03    6.2299629E-21
  9.3050003E-03    1.0148826E-21
  9.3400003E-03   -8.0986079E-21
  9.3750004E-03   -4.5245317E-21
  9.4100004E-03    9.2438265E-21
  9.4450004E-03    9.7305658E-21
  9.4799995E-03   -8.7210274E-21
  9.5149996E-03   -1.6520094E-20
  9.5499996E-03    5.4163576E-21
  9.5849996E-03    2.4445547E-20
  9.6199997E-03    2.1929756E-21
  9.6549997E-03   -3.2110146E-20
  9.6899997E-03   -1.5336347E-20
  9.7249998E-03    3.7381979E-20
  9.7599998E-03    3.4897577E-20
  9.7949998E-03   -3.6661352E-20
  9.8299999E-03   -6.0471278E-20
  9.8649999E-03    2.5812538E-20
  9.8999999E-03    9.0323270E-20
  9.9350000E-03    3.2994404E-22
  9.9700000E-03   -1.1969917E-19
  1.0005000E-02   -4.6444970E-20
  1.0040000E-02    1.4077070E-19
  1.0075000E-02    1.1513661E-19
  1.0110000E-02   -1.4203684E-19
  1.0145000E-02   -2.0553457E-19
  1.0180000E-02    1.0904573E-19
  1.0215000E-02    3.1116156E-19
  1.0250000E-02   -2.5827319E-20
  1.0285000E-02   -4.1719831E-19
  1.0320000E-02   -1.2510976E-19
  1.0355000E-02    4.9653269E-19
  1.0390000E-02    3.5134662E-19
  1.0425000E-02   -5.1399923E-19
  1.0460000E-02   -6.5062915E-19
  1.0495000E-02    4.2264052E-19
  1.0530000E-02    1.0027106E-18
  1.0565000E-02   -1.7093335E-19
  1.0600000E-02   -1.3598265E-18
  1.0635000E-02   -2.9138820E-19
  1.0670000E-02    1.6403734E-18
  1.0705000E-02    9.8761560E-19
  1.0740000E-02   -1.7381497E-18
  1.0775000E-02   -1.9202524E-18
  1.0810000E-02    1.5032833E-18
  1.0845000E-02    3.0174794E-18
  1.0880000E-02   -7.8756719E-19
  1.0915000E-02   -4.1362732E-18
  1.0950000E-02   -5.4299677E-19
  1.0985000E-02    5.0588273E-18
  1.1020000E-02    2.5871395E-18
  1.1055000E-02   -5.4479976E-18
  1.1090000E-02   -5.3007570E-18
  1.1125000E-02    4.9065409E-18
  1.1160000E-02    8.5187576E-18
  1.1195000E-02   -3.0021244E-18
  1.1230000E-02   -1.1829931E-17
  1.1265000E-02   -6.7243290E-19
  1.1300000E-02    1.4554799E-17
  1.1335000E-02    6.2834112E-18
  1.1370000E-02   -1.5838805E-17
  1.1405000E-02   -1.3768138E-17
  1.1440000E-02    1.4623749E-17
  1.1475000E-02    2.2602558E-17
  1.1510000E-02   -9.7244379E-18
  1.1545000E-02   -3.1647358E-17
  1.1580000E-02    2.1443221E-19
  1.1615000E-02    3.9217751E-17
  1.1650000E-02    1.4440041E-17
  1.1685000E-02   -4.2962669E-17
  1.1720000E-02   -3.3857727E-17
  1.1755000E-02    4.0168615E-17
  1.1790000E-02    5.6575680E-17
  1.1825000E-02   -2.8109407E-17
  1.1860000E-02   -7.9600398E-17
  1.1895000E-02    4.5905302E-18
  1.1930000E-02    9.8659135E-17
  1.1965000E-02    3.1429230E-17
  1.2000000E-02   -1.0803696E-16
  1.2035000E-02   -7.8655023E-17
  1.2070000E-02    1.0138198E-16
  1.2105000E-02    1.3317023E-16
  1.2140000E-02   -7.2406520E-17
  1.2175000E-02   -1.8755718E-16
  1.2210000E-02    1.6655220E-17
  1.2245000E-02    2.3120098E-16
  1.2280000E-02    6.6864887E-17
  1.2315000E-02   -2.5123582E-16
  1.2350000E-02   -1.7478537E-16
  1.2385000E-02    2.3359009E-16
  1.2420000E-02    2.9655113E-16
  1.2455000E-02   -1.6566092E-16
  1.2490000E-02   -4.1455489E-16
  1.2525000E-02    4.0145004E-17
  1.2560000E-02    5.0584792E-16
  1.2595000E-02    1.4423491E-16
  1.2630000E-02   -5.4141732E-16
  1.2665000E-02   -3.7435733E-16
  1.2700000E-02    4.9395827E-16
  1.2735000E-02    6.2622194E-16
  1.2770000E-02   -3.4001689E-16
  1.2805000E-02   -8.6043079E-16
  1.2840000E-02    6.9143108E-17
  1.2875000E-02    1.0279529E-15
  1.2910000E-02    3.1165878E-16
  1.2945000E-02   -1.0724667E-15
  1.2980000E-02   -7.7091708E-16
  1.3015000E-02    9.4401346E-16
  1.3050000E-02    1.2535543E-15
  1.3085000E-02   -6.0417320E-16
  1.3120000E-02   -1.6751209E-15
  1.3155000E-02    4.5294369E-17
  1.3190000E-02    1.9369784E-15
  1.3225000E-02    7.0050646E-16
  1.3260000E-02   -1.9380520E-15
  1.3295000E-02   -1.5564693E-15
  1.3330000E-02    1.5945168E-15
  1.3365000E-02    2.3979986E-15
  1.3400000E-02   -8.6007583E-16
  1.3435000E-02   -3.0630636E-15
  1.3470000E-02   -2.5485199E-16
  1.3505000E-02    3.3613048E-15
  1.3540000E-02    1.6434613E-15
  1.3575000E-02   -3.1315710E-15
  1.3610000E-02   -3.1350998E-15
  1.3645000E-02    2.2429864E-15
  1.3680000E-02    4.4557474E-15
  1.3715000E-02   -6.8577026E-16
  1.3750000E-02   -5.3103066E-15
  1.3785000E-02   -1.4656636E-15
  1.3820000E-02    5.3584888E-15
  1.3855000E-02    3.9404921E-15
  1.3890000E-02   -4.3493321E-15
  1.3925000E-02   -6.3357696E-15
  1.3960000E-02    2.1499007E-15
  1.3995000E-02    8.1161664E-15
  1.4030000E-02    1.1499775E-15
  1.4065000E-02   -8.7105548E-15
  1.4100000E-02   -5.2211310E-15
  1.4135000E-02    7.5836079E-15
  1.4170000E-02    9.4256801E-15
  1.4205000E-02   -4.4063522E-15
  1.4240000E-02   -1.2898871E-14
  1.4275000E-02   -8.5850807E-16
  1.4310000E-02    1.4565479E-14
  1.4345000E-02    7.7356097E-15
  1.4380000E-02   -1.3444298E-14
  1.4415000E-02   -1.5310237E-14
  1.4450000E-02    8.7174064E-15
  1.4485000E-02    2.2105078E-14
  1.4520000E-02   -1.1087903E-16
  1.4555000E-02   -2.6290763E-14
  1.4590000E-02   -1.1922757E-14
  1.4625000E-02    2.5906138E-14
  1.4660000E-02    2.5982822E-14
  1.4695000E-02   -1.9269066E-14
  1.4730000E-02   -3.9708362E-14
  1.4765000E-02    5.4085840E-15
  1.4800000E-02    4.9926931E-14
  1.4835000E-02    1.5476324E-14
  1.4870000E-02   -5.2949544E-14
  1.4905000E-02   -4.1494904E-14
  1.4940000E-02    4.5363893E-14
  1.4975000E-02    6.9004406E-14
  1.5010000E-02   -2.4678462E-14
  1.5045000E-02   -9.2689304E-14
  1.5080000E-02   -9.7807335E-15
  1.5115000E-02    1.0600379E-13
  1.5150000E-02    5.5975579E-14
  1.5185000E-02   -1.0222664E-13
  1.5220000E-02   -1.0868674E-13
  1.5255000E-02    7.5718355E-14
  1.5290000E-02    1.5941125E-13
  1.5325000E-02   -2.3564938E-14
  1.5360000E-02   -1.9707197E-13
  1.5395000E-02   -5.2936977E-14
  1.5430000E-02    2.0934994E-13
  1.5465000E-02    1.4702695E-13
  1.5500000E-02   -1.8497560E-13
  1.5535000E-02   -2.4629330E-13
  1.5570000E-02    1.1598261E-13
  1.5605000E-02    3.3289043E-13
  1.5640000E-02   -8.9680460E-16
  1.5675001E-02   -3.8580147E-13
  1.5710000E-02   -1.5320458E-13
  1.5745001E-02    3.8386219E-13
  1.5780000E-02    3.2919270E-13
  1.5814999E-02   -3.1020905E-13
  1.5850000E-02   -5.0056866E-13
  1.5884999E-02    1.5672710E-13
  1.5920000E-02    6.3367654E-13
  1.5954999E-02    7.1631557E-14
  1.5990000E-02   -6.9248697E-13
  1.6024999E-02   -3.5414599E-13
  1.6060000E-02    6.4486719E-13
  1.6094999E-02    6.5375190E-13
  1.6130000E-02   -4.7037266E-13
  1.6164999E-02   -9.2029119E-13
  1.6200000E-02    1.6707881E-13
  1.6235000E-02    1.0966696E-12
  1.6270000E-02    2.4311176E-13
  1.6305000E-02   -1.1281871E-12
  1.6340001E-02   -7.1258440E-13
  1.6375000E-02    9.7401633E-13
  1.6410001E-02    1.1711390E-12
  1.6445000E-02   -6.1858786E-13
  1.6480001E-02   -1.5344313E-12
  1.6515000E-02    8.0336318E-14
  1.6550001E-02    1.7170697E-12
  1.6585000E-02    5.8405472E-13
  1.6620001E-02   -1.6493461E-12
  1.6655000E-02   -1.2829961E-12
  1.6690001E-02    1.2934870E-12
  1.6725000E-02    1.8998750E-12
  1.6759999E-02   -6.5821209E-13
  1.6795000E-02   -2.3115594E-12
  1.6829999E-02   -1.9464835E-13
  1.6865000E-02    2.4106028E-12
  1.6899999E-02    1.1518852E-12
  1.6935000E-02   -2.1294735E-12
  1.6969999E-02   -2.0624711E-12
  1.7005000E-02    1.4600648E-12
  1.7039999E-02    2.7602475E-12
  1.7075000E-02   -4.6554405E-13
  1.7109999E-02   -3.0946500E-12
  1.7145000E-02   -7.2157731E-13
  1.7180000E-02    2.9621449E-12
  1.7215000E-02    1.9148893E-12
  1.7250000E-02   -2.3340030E-12
  1.7285001E-02   -2.9043866E-12
  1.7320000E-02    1.2710105E-12
  1.7355001E-02    3.4940766E-12
  1.7390000E-02    7.6309334E-14
  1.7425001E-02   -3.5437363E-12
  1.7460000E-02   -1.4878741E-12
  1.7495001E-02    3.0030533E-12
  1.7530000E-02    2.7102023E-12
  1.7565001E-02   -1.9323291E-12
  1.7600000E-02   -3.5053232E-12
  1.7635001E-02    5.0053711E-13
  1.7670000E-02    3.7003495E-12
  1.7704999E-02    1.0380931E-12
  1.7740000E-02   -3.2301900E-12
  1.7774999E-02   -2.3898071E-12
  1.7810000E-02    2.1603984E-12
  1.7844999E-02    3.2787887E-12
  1.7880000E-02   -6.8601532E-13
  1.7914999E-02   -3.5093037E-12
  1.7950000E-02   -9.0132594E-13
  1.7984999E-02    3.0125926E-12
  1.8020000E-02    2.2675228E-12
  1.8054999E-02   -1.8722042E-12
  1.8090000E-02   -3.1048473E-12
  1.8124999E-02    3.1784932E-13
  1.8160000E-02    3.2004724E-12
  1.8195000E-02    1.3109000E-12
  1.8230001E-02   -2.4939883E-12
  1.8265000E-02   -2.6338530E-12
  1.8300001E-02    1.1015325E-12
  1.8335000E-02    3.3118851E-12
  1.8370001E-02    6.9864562E-13
  1.8405000E-02   -3.1219038E-12
  1.8440001E-02   -2.5134343E-12
  1.8475000E-02    2.0130319E-12
  1.8510001E-02    3.9068197E-12
  1.8545000E-02   -1.3659184E-13
  1.8580001E-02   -4.4932985E-12
  1.8615000E-02   -2.1681409E-12
  1.8650001E-02    4.0304518E-12
  1.8685000E-02    4.4372999E-12
  1.8719999E-02   -2.4790721E-12
  1.8755000E-02   -6.1738527E-12
  1.8789999E-02    1.7009428E-14
  1.8825000E-02    6.9339855E-12
  1.8859999E-02    2.9701912E-12
  1.8895000E-02   -6.4220669E-12
  1.8929999E-02   -5.9411998E-12
  1.8965000E-02    4.5752712E-12
  1.8999999E-02    8.3039201E-12
  1.9035000E-02   -1.5961467E-12
  1.9069999E-02   -9.5439785E-12
  1.9105000E-02   -2.0931319E-12
  1.9140000E-02    9.3056569E-12
  1.9175000E-02    5.9085627E-12
  1.9210000E-02   -7.4541562E-12
  1.9245001E-02   -9.1702644E-12
  1.9280000E-02    4.1460346E-12
  1.9315001E-02    1.1231084E-11
  1.9350000E-02    1.5904246E-13
  1.9385001E-02   -1.1640995E-11
  1.9420000E-02   -4.8081634E-12
  1.9455001E-02    1.0218038E-11
  1.9490000E-02    9.0754236E-12
  1.9525001E-02   -7.0483259E-12
  1.9560000E-02   -1.2225792E-11
  1.9595001E-02    2.5266501E-12
  1.9630000E-02    1.3632764E-11
  1.9664999E-02    2.6240323E-12
  1.9700000E-02   -1.2992732E-11
  1.9734999E-02   -7.5241905E-12
  1.9770000E-02    1.0412795E-11
  1.9804999E-02    1.1369946E-11
  1.9840000E-02   -6.3114830E-12
  1.9874999E-02   -1.3509647E-11
  1.9910000E-02    1.3730620E-12
  1.9944999E-02    1.3508663E-11
  1.9980000E-02    3.4276579E-12
  2.0014999E-02   -1.1398336E-11
  2.0050000E-02   -7.0632662E-12
  2.0085000E-02    7.7882015E-12
  2.0120000E-02    8.8601938E-12
  2.0155000E-02   -3.5958361E-12
  2.0190001E-02   -8.6165363E-12
  2.0225000E-02   -2.2876441E-13
  2.0260001E-02    6.4978530E-12
  2.0295000E-02    2.7193076E-12
  2.0330001E-02   -3.1734350E-12
  2.0365000E-02   -3.1338864E-12
  2.0400001E-02   -1.1742483E-13
  2.0435000E-02    1.4884137E-12
  2.0470001E-02    2.0948588E-12
  2.0505000E-02    1.3705453E-12
  2.0540001E-02   -2.0658616E-12
  2.0575000E-02   -4.2970935E-12
  2.0609999E-02   -8.1932365E-14
  2.0645000E-02    6.1024389E-12
  2.0679999E-02    3.9715657E-12
  2.0715000E-02   -5.5325384E-12
  2.0749999E-02   -8.3758139E-12
  2.0785000E-02    1.8625624E-12
  2.0819999E-02    1.1313793E-11
  2.0855000E-02    4.2907049E-12
  2.0889999E-02   -1.1123772E-11
  2.0925000E-02   -1.1230537E-11
  2.0959999E-02    7.2206603E-12
  2.0995000E-02    1.7083947E-11
  2.1029999E-02    1.5901572E-13
  2.1065000E-02   -1.9996125E-11
  2.1100000E-02   -9.9781841E-12
  2.1135001E-02    1.8215127E-11
  2.1170000E-02    1.9937689E-11
  2.1205001E-02   -1.1108604E-11
  2.1240000E-02   -2.6989831E-11
  2.1275001E-02    3.2109596E-15
  2.1310000E-02    2.8873478E-11
  2.1345001E-02    1.2514228E-11
  2.1380000E-02   -2.4788581E-11
  2.1415001E-02   -2.3610879E-11
  2.1450000E-02    1.5151658E-11
  2.1485001E-02    3.0500515E-11
  2.1520000E-02   -1.6832386E-12
  2.1555001E-02   -3.0889485E-11
  2.1590000E-02   -1.2382539E-11
  2.1624999E-02    2.4170029E-11
  2.1660000E-02    2.3293239E-11
  2.1694999E-02   -1.1850824E-11
  2.1730000E-02   -2.8137166E-11
  2.1764999E-02   -3.0631220E-12
  2.1800000E-02    2.5591480E-11
  2.1834999E-02    1.7026410E-11
  2.1870000E-02   -1.5959961E-11
  2.1904999E-02   -2.6556700E-11
  2.1940000E-02    1.2497248E-12
  2.1974999E-02    2.9070597E-11
  2.2010000E-02    1.5215681E-11
  2.2045000E-02   -2.3511464E-11
  2.2080000E-02   -2.9337064E-11
  2.2115000E-02    1.1120935E-11
  2.2150001E-02    3.7765974E-11
  2.2185000E-02    5.0715430E-12
  2.2220001E-02   -3.9056990E-11
  2.2255000E-02   -2.1738871E-11
  2.2290001E-02    3.3438568E-11
  2.2325000E-02    3.6394367E-11
  2.2360001E-02   -2.1261987E-11
  2.2395000E-02   -4.5944654E-11
  2.2430001E-02    4.3900330E-12
  2.2465000E-02    4.7496826E-11
  2.2500001E-02    1.2861612E-11
  2.2535000E-02   -4.1208988E-11
  2.2569999E-02   -2.6565198E-11
  2.2605000E-02    3.0096873E-11
  2.2639999E-02    3.6544594E-11
  2.2675000E-02   -1.4711463E-11
  2.2709999E-02   -4.1824780E-11
  2.2745000E-02   -5.2957287E-12
  2.2779999E-02    3.8283252E-11
  2.2815000E-02    2.5701835E-11
  2.2849999E-02   -2.4372386E-11
  2.2885000E-02   -3.9709569E-11
  2.2919999E-02    5.2355147E-12
  2.2955000E-02    4.6713827E-11
  2.2990000E-02    1.6153703E-11
  2.3025000E-02   -4.7818985E-11
  2.3060000E-02   -4.0773867E-11
  2.3095001E-02    3.8784448E-11
  2.3130000E-02    6.4444346E-11
  2.3165001E-02   -1.6281494E-11
  2.3200000E-02   -7.6335598E-11
  2.3235001E-02   -1.1585344E-11
  2.3270000E-02    7.3738515E-11
  2.3305001E-02    3.5905896E-11
  2.3340000E-02   -6.1316931E-11
  2.3375001E-02   -5.5155231E-11
  2.3410000E-02    3.9661687E-11
  2.3445001E-02    6.6305815E-11
  2.3480000E-02   -7.8042711E-12
  2.3514999E-02   -5.8651091E-11
  2.3550000E-02   -2.2096682E-11
  2.3584999E-02    3.1578275E-11
  2.3620000E-02    3.5716406E-11
  2.3654999E-02    2.1619499E-12
  2.3690000E-02   -3.1709926E-11
  2.3724999E-02   -3.2498886E-11
  2.3760000E-02    1.5326320E-11
  2.3794999E-02    5.7922462E-11
  2.3830000E-02    1.5556695E-11
  2.3864999E-02   -6.9052111E-11
  2.3900000E-02   -5.6462741E-11
  2.3934999E-02    5.4423101E-11
  2.3970000E-02    8.9293795E-11
  2.4005000E-02   -1.7660748E-11
  2.4040001E-02   -9.7562639E-11
  2.4075000E-02   -2.2968953E-11
  2.4110001E-02    8.2250234E-11
  2.4145000E-02    5.5078598E-11
  2.4180001E-02   -5.0157878E-11
  2.4215000E-02   -7.3067746E-11
  2.4250001E-02    6.5673439E-12
  2.4285000E-02    7.1393884E-11
  2.4320001E-02    4.1354437E-11
  2.4355000E-02   -4.3683567E-11
  2.4390001E-02   -7.7590205E-11
  2.4425000E-02   -5.3268314E-12
  2.4460001E-02    8.6559288E-11
  2.4495000E-02    5.7599255E-11
  2.4529999E-02   -6.5950245E-11
  2.4565000E-02   -9.2468387E-11
  2.4599999E-02    3.1260005E-11
  2.4635000E-02    1.0592590E-10
  2.4669999E-02    4.2531911E-12
  2.4705000E-02   -1.0408015E-10
  2.4739999E-02   -3.9595285E-11
  2.4775000E-02    8.3936018E-11
  2.4809999E-02    6.7665769E-11
  2.4845000E-02   -4.2586136E-11
  2.4879999E-02   -6.8721362E-11
  2.4915000E-02    1.5816762E-12
  2.4950000E-02    4.4452723E-11
  2.4985000E-02    1.8151805E-11
  2.5020000E-02   -1.9807614E-11
  2.5055001E-02   -2.7654559E-11
  2.5090000E-02   -1.2592670E-12
  2.5125001E-02    3.7487735E-11
  2.5160000E-02    3.2564975E-11
  2.5195001E-02   -2.9737574E-11
  2.5230000E-02   -5.8563050E-11
  2.5265001E-02    3.5350574E-12
  2.5300000E-02    5.5614818E-11
  2.5335001E-02    6.9577850E-12
  2.5370000E-02   -4.6197154E-11
  2.5405001E-02    1.2194158E-12
  2.5440000E-02    5.5360390E-11
  2.5474999E-02    4.7747787E-12
  2.5510000E-02   -5.7460921E-11
  2.5544999E-02   -1.7303719E-11
  2.5580000E-02    3.6730879E-11
  2.5614999E-02    4.9024386E-13
  2.5650000E-02   -3.3708487E-11
  2.5684999E-02    2.3403226E-11
  2.5720000E-02    6.0315537E-11
  2.5754999E-02   -1.2907164E-11
  2.5790000E-02   -6.9932643E-11
  2.5824999E-02   -8.0354716E-12
  2.5860000E-02    5.1370595E-11
  2.5895000E-02    2.3359596E-12
  2.5930000E-02   -4.5847114E-11
  2.5965000E-02    4.5891550E-12
  2.6000001E-02    5.3073223E-11
  2.6035000E-02    9.9963813E-12
  2.6070001E-02   -3.7896939E-11
  2.6105000E-02   -1.4090396E-11
  2.6140001E-02    1.3774260E-11
  2.6175000E-02   -4.7511699E-12
  2.6210001E-02   -1.2523388E-11
  2.6245000E-02    1.2285560E-11
  2.6280001E-02    1.4238323E-11
  2.6315000E-02   -5.5434377E-12
  2.6350001E-02    5.2640331E-12
  2.6385000E-02    1.8837251E-11
  2.6419999E-02   -1.8784621E-11
  2.6455000E-02   -4.7064332E-11
  2.6489999E-02    7.1563311E-12
  2.6525000E-02    6.0012106E-11
  2.6559999E-02    6.4298723E-12
  2.6595000E-02   -6.4243097E-11
  2.6629999E-02   -1.2086270E-11
  2.6665000E-02    8.3504842E-11
  2.6699999E-02    4.2103057E-11
  2.6735000E-02   -9.2533425E-11
  2.6769999E-02   -9.9844556E-11
  2.6805000E-02    5.3370870E-11
  2.6839999E-02    1.3861190E-10
  2.6875000E-02    2.0175018E-11
  2.6910000E-02   -1.2223345E-10
  2.6945001E-02   -6.9450626E-11
  2.6980000E-02    8.6942134E-11