 -4.8000002E-03    1.0000000E-24
 -4.7650002E-03    1.0000002E-24
 -4.7300002E-03    1.0000002E-24
 -4.6950001E-03    1.0000000E-24
 -4.6600001E-03    1.0000001E-24
 -4.6250001E-03    1.0000005E-24
 -4.5900000E-03    1.0000002E-24
 -4.5550000E-03    9.9999963E-25
 -4.5200000E-03    1.0000005E-24
 -4.4849999E-03    1.0000006E-24
 -4.4499999E-03    9.9999923E-25
 -4.4149999E-03    1.0000000E-24
 -4.3799998E-03    1.0000013E-24
 -4.3449998E-03    9.9999982E-25
 -4.3100002E-03    9.9999933E-25
 -4.2750002E-03    1.0000011E-24
 -4.2400002E-03    1.0000004E-24
 -4.2050001E-03    9.9999884E-25
 -4.1700001E-03    1.0000008E-24
 -4.1350001E-03    1.0000013E-24
 -4.1000000E-03    9.9999893E-25
 -4.0650000E-03    9.9999953E-25
 -4.0300000E-03    1.0000007E-24
 -3.9949999E-03    9.9999972E-25
 -3.9599999E-03    9.9999982E-25
 -3.9249999E-03    1.0000011E-24
 -3.8900001E-03    1.0000003E-24
 -3.8550000E-03    9.9999874E-25
 -3.8200000E-03    1.0000000E-24
 -3.7849999E-03    1.0000007E-24
 -3.7499999E-03    1.0000003E-24
 -3.7150001E-03    1.0000007E-24
 -3.6800001E-03    1.0000006E-24
 -3.6450000E-03    9.9999963E-25
 -3.6100000E-03    9.9999972E-25
 -3.5750000E-03    1.0000003E-24
 -3.5399999E-03    9.9999943E-25
 -3.5049999E-03    9.9999963E-25
 -3.4700001E-03    1.0000008E-24
 -3.4350001E-03    1.0000006E-24
 -3.4000000E-03    9.9999943E-25
 -3.3650000E-03    1.0000004E-24
 -3.3300000E-03    1.0000014E-24
 -3.2949999E-03    9.9999982E-25
 -3.2599999E-03    9.9999893E-25
 -3.2250001E-03    1.0000004E-24
 -3.1900001E-03    1.0000005E-24
 -3.1550000E-03    9.9999953E-25
 -3.1200000E-03    1.0000003E-24
 -3.0850000E-03    1.0000006E-24
 -3.0499999E-03    9.9999953E-25
 -3.0149999E-03    9.9999982E-25
 -2.9800001E-03    1.0000010E-24
 -2.9450001E-03    1.0000006E-24
 -2.9100000E-03    9.9999963E-25
 -2.8750000E-03    9.9999972E-25
 -2.8400000E-03    1.0000006E-24
 -2.8049999E-03    1.0000009E-24
 -2.7699999E-03    9.9999992E-25
 -2.7350001E-03    9.9999913E-25
 -2.7000001E-03    9.9999982E-25
 -2.6650000E-03    1.0000003E-24
 -2.6300000E-03    9.9999992E-25
 -2.5950000E-03    1.0000003E-24
 -2.5599999E-03    1.0000007E-24
 -2.5249999E-03    1.0000002E-24
 -2.4900001E-03    1.0000001E-24
 -2.4550001E-03    1.0000000E-24
 -2.4200000E-03    9.9999933E-25
 -2.3850000E-03    9.9999992E-25
 -2.3500000E-03    1.0000014E-24
 -2.3149999E-03    1.0000006E-24
 -2.2799999E-03    9.9999815E-25
 -2.2450001E-03    9.9999963E-25
 -2.2100001E-03    1.0000021E-24
 -2.1750000E-03    1.0000000E-24
 -2.1400000E-03    9.9999815E-25
 -2.1050000E-03    1.0000006E-24
 -2.0699999E-03    1.0000024E-24
 -2.0349999E-03    1.0000001E-24
 -2.0000001E-03    9.9999893E-25
 -1.9650001E-03    1.0000002E-24
 -1.9300000E-03    9.9999982E-25
 -1.8950000E-03    9.9999923E-25
 -1.8600000E-03    9.9999992E-25
 -1.8250000E-03    1.0000007E-24
 -1.7900000E-03    1.0000010E-24
 -1.7550000E-03    1.0000016E-24
 -1.7199999E-03    1.0000003E-24
 -1.6850000E-03    9.9999815E-25
 -1.6500000E-03    9.9999923E-25
 -1.6150000E-03    1.0000011E-24
 -1.5800000E-03    1.0000009E-24
 -1.5450000E-03    1.0000007E-24
 -1.5100000E-03    9.9999923E-25
 -1.4750001E-03    9.9999775E-25
 -1.4400000E-03    1.0000006E-24
 -1.4050000E-03    1.0000021E-24
 -1.3700000E-03    9.9999893E-25
 -1.3350000E-03    9.9999943E-25
 -1.3000000E-03    1.0000024E-24
 -1.2650000E-03    9.9999992E-25
 -1.2300001E-03    9.9999746E-25
 -1.1950000E-03    1.0000006E-24
 -1.1600000E-03    1.0000019E-24
 -1.1250000E-03    9.9999933E-25
 -1.0900000E-03    9.9999884E-25
 -1.0550000E-03    1.0000010E-24
 -1.0200000E-03    1.0000020E-24
 -9.8500005E-04    1.0000004E-24
 -9.5000002E-04    9.9999943E-25
 -9.1499998E-04    1.0000006E-24
 -8.8000001E-04    1.0000010E-24
 -8.4499997E-04    9.9999943E-25
 -8.1000000E-04    9.9999933E-25
 -7.7500002E-04    1.0000009E-24
 -7.3999999E-04    9.9999992E-25
 -7.0500001E-04    9.9999874E-25
 -6.6999998E-04    1.0000004E-24
 -6.3500000E-04    1.0000014E-24
 -6.0000003E-04    9.9999963E-25
 -5.6499999E-04    9.9999903E-25
 -5.3000002E-04    1.0000014E-24
 -4.9499999E-04    1.0000012E-24
 -4.6000001E-04    9.9999884E-25
 -4.2500001E-04    9.9999972E-25
 -3.9000000E-04    1.0000018E-24
 -3.5500000E-04    1.0000007E-24
 -3.1999999E-04    9.9999864E-25
 -2.8499999E-04    9.9999844E-25
 -2.5000001E-04    1.0000009E-24
 -2.1499999E-04    1.0000022E-24
 -1.8000000E-04    9.9999854E-25
 -1.4500000E-04    9.9999755E-25
 -1.1000000E-04    1.0000028E-24
 -7.5000004E-05    1.0000036E-24
 -3.9999999E-05    9.9999795E-25
 -4.9999999E-06    9.9999795E-25
  2.9999999E-05    1.0000007E-24
  6.5000000E-05    9.9999943E-25
  9.9999997E-05    9.9999953E-25
  1.3499999E-04    1.0000018E-24
  1.7000000E-04    1.0000009E-24
  2.0500000E-04    9.9999963E-25
  2.3999999E-04    9.9999972E-25
  2.7500000E-04    9.9999923E-25
  3.1000000E-04    1.0000002E-24
  3.4500001E-04    1.0000021E-24
  3.8000001E-04    1.0000002E-24
  4.1499999E-04    9.9999943E-25
  4.4999999E-04    1.0000016E-24
  4.8500000E-04    9.9999992E-25
  5.2000000E-04    9.9999755E-25
  5.5499998E-04    1.0000002E-24
  5.9000001E-04    1.0000015E-24
  6.2499999E-04    9.9999923E-25
  6.6000002E-04    1.0000000E-24
  6.9500000E-04    1.0000023E-24
  7.3000003E-04    1.0000015E-24
  7.6500000E-04    9.9999884E-25
  7.9999998E-04    9.9999755E-25
  8.3500001E-04    9.9999972E-25
  8.6999999E-04    1.0000024E-24
  9.0500002E-04    9.9999982E-25
  9.4000000E-04    9.9999815E-25
  9.7499997E-04    1.0000023E-24
  1.0100000E-03    1.0000020E-24
  1.0450000E-03    9.9999765E-25
  1.0800000E-03    9.9999923E-25
  1.1150000E-03    1.0000014E-24
  1.1500000E-03    9.9999903E-25
  1.1849999E-03    1.0000003E-24
  1.2200000E-03    1.0000022E-24
  1.2550000E-03    9.9999903E-25
  1.2900000E-03    9.9999943E-25
  1.3250000E-03    1.0000018E-24
  1.3600000E-03    9.9999874E-25
  1.3950000E-03    9.9999874E-25
  1.4299999E-03    1.0000033E-24
  1.4650000E-03    1.0000000E-24
  1.5000000E-03    9.9999637E-25
  1.5350000E-03    1.0000027E-24
  1.5700000E-03    1.0000031E-24
  1.6050000E-03    9.9999608E-25
  1.6400000E-03    9.9999923E-25
  1.6749999E-03    1.0000030E-24
  1.7100000E-03    9.9999736E-25
  1.7450000E-03    9.9999884E-25
  1.7800000E-03    1.0000048E-24
  1.8150000E-03    9.9999933E-25
  1.8500000E-03    9.9999657E-25
  1.8850000E-03    1.0000035E-24
  1.9200000E-03    1.0000017E-24
  1.9550000E-03    9.9999627E-25
  1.9900000E-03    1.0000005E-24
  2.0250001E-03    1.0000028E-24
  2.0600001E-03    9.9999893E-25
  2.0949999E-03    9.9999982E-25
  2.1299999E-03    1.0000016E-24
  2.1650000E-03    9.9999805E-25
  2.2000000E-03    9.9999963E-25
  2.2350000E-03    1.0000042E-24
  2.2700001E-03    1.0000008E-24
  2.3050001E-03    9.9999696E-25
  2.3399999E-03    9.9999963E-25
  2.3749999E-03    1.0000000E-24
  2.4100000E-03    9.9999824E-25
  2.4450000E-03    1.0000021E-24
  2.4800000E-03    1.0000027E-24
  2.5150001E-03    9.9999864E-25
  2.5500001E-03    9.9999972E-25
  2.5849999E-03    1.0000001E-24
  2.6199999E-03    9.9999647E-25
  2.6550000E-03    1.0000015E-24
  2.6900000E-03    1.0000060E-24
  2.7250000E-03    9.9999795E-25
  2.7600001E-03    9.9999558E-25
  2.7950001E-03    1.0000043E-24
  2.8299999E-03    1.0000031E-24
  2.8649999E-03    9.9999647E-25
  2.9000000E-03    1.0000000E-24
  2.9350000E-03    1.0000027E-24
  2.9700000E-03    9.9999815E-25
  3.0050001E-03    9.9999864E-25
  3.0400001E-03    1.0000031E-24
  3.0749999E-03    1.0000008E-24
  3.1099999E-03    9.9999696E-25
  3.1450000E-03    9.9999933E-25
  3.1800000E-03    1.0000024E-24
  3.2150000E-03    1.0000011E-24
  3.2500001E-03    9.9999795E-25
  3.2850001E-03    9.9999943E-25
  3.3199999E-03    1.0000033E-24
  3.3549999E-03    1.0000016E-24
  3.3900000E-03    9.9999686E-25
  3.4250000E-03    9.9999854E-25
  3.4600000E-03    1.0000025E-24
  3.4950001E-03    1.0000001E-24
  3.5300001E-03    9.9999805E-25
  3.5649999E-03    1.0000006E-24
  3.5999999E-03    1.0000009E-24
  3.6350000E-03    9.9999982E-25
  3.6700000E-03    1.0000006E-24
  3.7050000E-03    9.9999963E-25
  3.7400001E-03    9.9999963E-25
  3.7750001E-03    1.0000020E-24
  3.8099999E-03    1.0000010E-24
  3.8449999E-03    9.9999805E-25
  3.8800000E-03    9.9999893E-25
  3.9149998E-03    1.0000002E-24
  3.9499998E-03    9.9999903E-25
  3.9849998E-03    9.9999972E-25
  4.0199999E-03    1.0000020E-24
  4.0549999E-03    1.0000015E-24
  4.0899999E-03    1.0000004E-24
  4.1250000E-03    1.0000006E-24
  4.1600000E-03    9.9999953E-25
  4.1950000E-03    9.9999874E-25
  4.2300001E-03    9.9999982E-25
  4.2650001E-03    1.0000001E-24
  4.3000001E-03    1.0000001E-24
  4.3350002E-03    1.0000018E-24
  4.3700002E-03    1.0000015E-24
  4.4049998E-03    9.9999874E-25
  4.4399998E-03    9.9999815E-25
  4.4749998E-03    1.0000008E-24
  4.5099999E-03    1.0000009E-24
  4.5449999E-03    9.9999805E-25
  4.5799999E-03    9.9999972E-25
  4.6150000E-03    1.0000023E-24
  4.6500000E-03    1.0000002E-24
  4.6850001E-03    9.9999933E-25
  4.7200001E-03    1.0000022E-24
  4.7550001E-03    9.9999923E-25
  4.7900002E-03    9.9999647E-25
  4.8250002E-03    1.0000019E-24
  4.8600002E-03    1.0000028E-24
  4.8949998E-03    9.9999746E-25
  4.9299998E-03    1.0000001E-24
  4.9649999E-03    1.0000036E-24
  4.9999999E-03    9.9999982E-25
  5.0349999E-03    9.9999874E-25
  5.0700000E-03    1.0000009E-24
  5.1050000E-03    9.9999982E-25
  5.1400000E-03    1.0000001E-24
  5.1750001E-03    1.0000012E-24
  5.2100001E-03    9.9999834E-25
  5.2450001E-03    9.9999874E-25
  5.2800002E-03    1.0000028E-24
  5.3150002E-03    1.0000001E-24
  5.3500002E-03    9.9999834E-25
  5.3849998E-03    1.0000029E-24
  5.4199998E-03    1.0000021E-24
  5.4549999E-03    9.9999755E-25
  5.4899999E-03    9.9999933E-25
  5.5249999E-03    1.0000009E-24
  5.5600000E-03    9.9999903E-25
  5.5950000E-03    9.9999992E-25
  5.6300000E-03    1.0000017E-24
  5.6650001E-03    1.0000007E-24
  5.7000001E-03    1.0000000E-24
  5.7350001E-03    9.9999913E-25
  5.7700002E-03    9.9999893E-25
  5.8050002E-03    1.0000011E-24
  5.8400002E-03    1.0000012E-24
  5.8749998E-03    9.9999953E-25
  5.9099998E-03    1.0000016E-24
  5.9449999E-03    1.0000017E-24
  5.9799999E-03    9.9999677E-25
  6.0149999E-03    9.9999834E-25
  6.0500000E-03    1.0000039E-24
  6.0850000E-03    1.0000008E-24
  6.1200000E-03    9.9999598E-25
  6.1550001E-03    9.9999933E-25
  6.1900001E-03    1.0000022E-24
  6.2250001E-03    9.9999972E-25
  6.2600002E-03    9.9999992E-25
  6.2950002E-03    1.0000016E-24
  6.3299998E-03    1.0000011E-24
  6.3649998E-03    1.0000009E-24
  6.3999998E-03    1.0000004E-24
  6.4349999E-03    9.9999775E-25
  6.4699999E-03    9.9999864E-25
  6.5049999E-03    1.0000029E-24
  6.5400000E-03    1.0000025E-24
  6.5750000E-03    9.9999824E-25
  6.6100000E-03    9.9999805E-25
  6.6450001E-03    1.0000003E-24
  6.6800001E-03    1.0000015E-24
  6.7150001E-03    1.0000013E-24
  6.7500002E-03    9.9999854E-25
  6.7850002E-03    9.9999893E-25
  6.8199998E-03    1.0000032E-24
  6.8549998E-03    1.0000011E-24
  6.8899998E-03    9.9999706E-25
  6.9249999E-03    1.0000001E-24
  6.9599999E-03    1.0000011E-24
  6.9949999E-03    9.9999795E-25
  7.0300000E-03    1.0000001E-24
  7.0650000E-03    1.0000019E-24
  7.1000000E-03    9.9999903E-25
  7.1350001E-03    1.0000011E-24
  7.1700001E-03    1.0000030E-24
  7.2050001E-03    9.9999726E-25
  7.2400002E-03    9.9999608E-25
  7.2750002E-03    1.0000018E-24
  7.3099998E-03    1.0000034E-24
  7.3449998E-03    1.0000022E-24
  7.3799998E-03    1.0000003E-24
  7.4149999E-03    9.9999746E-25
  7.4499999E-03    9.9999824E-25
  7.4850000E-03    1.0000011E-24
  7.5200000E-03    1.0000003E-24
  7.5550000E-03    9.9999923E-25
  7.5900001E-03    1.0000014E-24
  7.6250001E-03    1.0000029E-24
  7.6600001E-03    9.9999953E-25
  7.6950002E-03    9.9999509E-25
  7.7300002E-03    9.9999933E-25
  7.7650002E-03    1.0000049E-24
  7.7999998E-03    1.0000003E-24
  7.8349998E-03    9.9999726E-25
  7.8699999E-03    1.0000026E-24
  7.9049999E-03    1.0000019E-24
  7.9399999E-03    9.9999923E-25
  7.9750000E-03    1.0000014E-24
  8.0100000E-03    9.9999884E-25
  8.0450000E-03    9.9999548E-25
  8.0800001E-03    1.0000004E-24
  8.1150001E-03    1.0000014E-24
  8.1500001E-03    9.9999893E-25
  8.1850002E-03    1.0000016E-24
  8.2200002E-03    1.0000005E-24
  8.2550002E-03    9.9999834E-25
  8.2900003E-03    1.0000023E-24
  8.3250003E-03    1.0000011E-24
  8.3600003E-03    9.9999755E-25
  8.3950004E-03    1.0000020E-24
  8.4300004E-03    1.0000033E-24
  8.4650004E-03    9.9999805E-25
  8.5000005E-03    9.9999923E-25
  8.5349996E-03    1.0000020E-24
  8.5699996E-03    9.9999953E-25
  8.6049996E-03    9.9999982E-25
  8.6399997E-03    1.0000012E-24
  8.6749997E-03    9.9999864E-25
  8.7099997E-03    9.9999755E-25
  8.7449998E-03    1.0000004E-24
  8.7799998E-03    1.0000022E-24
  8.8149998E-03    9.9999923E-25
  8.8499999E-03    9.9999746E-25
  8.8849999E-03    1.0000031E-24
  8.9199999E-03    1.0000052E-24
  8.9550000E-03    9.9999519E-25
  8.9900000E-03    9.9999312E-25
  9.0250000E-03    1.0000077E-24
  9.0600001E-03    1.0000084E-24
  9.0950001E-03    9.9998937E-25
  9.1300001E-03    9.9999154E-25
  9.1650002E-03    1.0000166E-24
  9.2000002E-03    1.0000088E-24
  9.2350002E-03    9.9997379E-25
  9.2700003E-03    9.9999036E-25
  9.3050003E-03    1.0000374E-24
  9.3400003E-03    1.0000073E-24
  9.3750004E-03    9.9995111E-25
  9.4100004E-03    1.0000043E-24
  9.4450004E-03    1.0000665E-24
  9.4799995E-03    9.9997990E-25
  9.5149996E-03    9.9991798E-25
  9.5499996E-03    1.0000449E-24
  9.5849996E-03    1.0000892E-24
  9.6199997E-03    9.9991413E-25
  9.6549997E-03    9.9991571E-25
  9.6899997E-03    1.0001464E-24
  9.7249998E-03    1.0000546E-24
  9.7599998E-03    9.9976731E-25
  9.7949998E-03    1.0000197E-24
  9.8299999E-03    1.0003557E-24
  9.8649999E-03    9.9984018E-25
  9.8999999E-03    9.9948046E-25
  9.9350000E-03    1.0004023E-24
  9.9700000E-03    1.0007332E-24
  1.0005000E-02    9.9920869E-25
  1.0040000E-02    9.9899708E-25
  1.0075000E-02    1.0013787E-24
  1.0110000E-02    1.0013238E-24
  1.0145000E-02    9.9777090E-25
  1.0180000E-02    9.9831768E-25
  1.0215000E-02    1.0034044E-24
  1.0250000E-02    1.0020445E-24
  1.0285000E-02    9.9504607E-25
  1.0320000E-02    9.9765986E-25
  1.0355000E-02    1.0068997E-24
  1.0390000E-02    1.0024512E-24
  1.0425000E-02    9.9080466E-25
  1.0460000E-02    9.9783726E-25
  1.0495000E-02    1.0116989E-24
  1.0530000E-02    1.0011271E-24
  1.0565000E-02    9.8588138E-25
  1.0600000E-02    1.0011965E-24
  1.0635000E-02    1.0159369E-24
  1.0670000E-02    9.9437150E-25
  1.0705000E-02    9.8366468E-25
  1.0740000E-02    1.0133882E-24
  1.0775000E-02    1.0141396E-24
  1.0810000E-02    9.7379278E-25
  1.0845000E-02    9.9223299E-25
  1.0880000E-02    1.0464687E-24
  1.0915000E-02    9.9525463E-25
  1.0950000E-02    9.2272074E-25
  1.0985000E-02    1.0256539E-24
  1.1020000E-02    1.1224626E-24
  1.1055000E-02    9.4272438E-25
  1.1090000E-02    8.1366185E-25
  1.1125000E-02    1.1015905E-24
  1.1160000E-02    1.2731170E-24
  1.1195000E-02    8.4032382E-25
  1.1230000E-02    6.1431493E-25
  1.1265000E-02    1.2310492E-24
  1.1300000E-02    1.5234989E-24
  1.1335000E-02    6.8693337E-25
  1.1370000E-02    3.2075269E-25
  1.1405000E-02    1.4007331E-24
  1.1440000E-02    1.8339580E-24
  1.1475000E-02    5.1248975E-25
  1.1510000E-02    4.9612763E-26
  1.1545000E-02    1.5680258E-24
  1.1580000E-02    1.9648871E-24
  1.1615000E-02    3.5621285E-25
  1.1650000E-02    2.2153149E-25
  1.1685000E-02    1.7333483E-24
  1.1720000E-02    1.2488730E-24
  1.1755000E-02    1.1185287E-25
  1.1790000E-02    1.8132343E-24
  1.1825000E-02    2.2146840E-24
  1.1860000E-02   -1.6389877E-24
  1.1895000E-02   -9.0208434E-25
  1.1930000E-02    6.4801026E-24
  1.1965000E-02    4.2512219E-24
  1.2000000E-02   -8.5632192E-24
  1.2035000E-02   -4.6968506E-24
  1.2070000E-02    1.6010678E-23
  1.2105000E-02    1.0807518E-23
  1.2140000E-02   -2.0720572E-23
  1.2175000E-02   -1.5239493E-23
  1.2210000E-02    3.0204531E-23
  1.2245000E-02    2.6611172E-23
  1.2280000E-02   -3.5394072E-23
  1.2315000E-02   -3.7256537E-23
  1.2350000E-02    4.2445608E-23
  1.2385000E-02    5.4811810E-23
  1.2420000E-02   -4.0604391E-23
  1.2455000E-02   -6.9596547E-23
  1.2490000E-02    3.4224708E-23
  1.2525000E-02    8.5775459E-23
  1.2560000E-02   -1.1087750E-23
  1.2595000E-02   -8.8336777E-23
  1.2630000E-02   -2.4801970E-23
  1.2665000E-02    7.4011782E-23
  1.2700000E-02    8.3739459E-23
  1.2735000E-02   -1.8385749E-23
  1.2770000E-02   -1.5597749E-22
  1.2805000E-02   -9.2378610E-23
  1.2840000E-02    2.4042976E-22
  1.2875000E-02    2.9259121E-22
  1.2910000E-02   -3.0852676E-22
  1.2945000E-02   -6.0205465E-22
  1.2980000E-02    3.3167643E-22
  1.3015000E-02    1.0521213E-21
  1.3050000E-02   -2.4529608E-22
  1.3085000E-02   -1.6438895E-21
  1.3120000E-02   -2.0934661E-23
  1.3155000E-02    2.3659326E-21
  1.3190000E-02    5.7214085E-22
  1.3225000E-02   -3.1436819E-21
  1.3260000E-02   -1.5053639E-21
  1.3295000E-02    3.8498557E-21
  1.3330000E-02    2.9188417E-21
  1.3365000E-02   -4.2512972E-21
  1.3400000E-02   -4.8415265E-21
  1.3435000E-02    4.0262398E-21
  1.3470000E-02    7.2078257E-21
  1.3505000E-02   -2.7333020E-21
  1.3540000E-02   -9.7490966E-21
  1.3575000E-02   -1.2717648E-22
  1.3610000E-02    1.1934095E-20
  1.3645000E-02    5.0718503E-21
  1.3680000E-02   -1.2841952E-20
  1.3715000E-02   -1.2468785E-20
  1.3750000E-02    1.1117617E-20
  1.3785000E-02    2.2361529E-20
  1.3820000E-02   -4.9165948E-21
  1.3855000E-02   -3.4149460E-20
  1.3890000E-02   -7.9839263E-21
  1.3925000E-02    4.6263704E-20
  1.3960000E-02    2.9973891E-20
  1.3995000E-02   -5.5749072E-20
  1.4030000E-02   -6.3102649E-20
  1.4065000E-02    5.7958400E-20
  1.4100000E-02    1.0834081E-19
  1.4135000E-02   -4.6359774E-20
  1.4170000E-02   -1.6444986E-19
  1.4205000E-02    1.2771023E-20
  1.4240000E-02    2.2661456E-19
  1.4275000E-02    5.1868105E-20
  1.4310000E-02   -2.8483928E-19
  1.4345000E-02   -1.5578663E-19
  1.4380000E-02    3.2251718E-19
  1.4415000E-02    3.0361215E-19
  1.4450000E-02   -3.1551910E-19
  1.4485000E-02   -4.9226325E-19
  1.4520000E-02    2.3263059E-19
  1.4555000E-02    7.0571110E-19
  1.4590000E-02   -3.8112841E-20
  1.4625000E-02   -9.0895631E-19
  1.4660000E-02   -3.0246330E-19
  1.4695000E-02    1.0423959E-18
  1.4730000E-02    8.1229560E-19
  1.4765000E-02   -1.0182387E-18
  1.4800000E-02   -1.4886868E-18
  1.4835000E-02    7.2170309E-19
  1.4870000E-02    2.2841401E-18
  1.4905000E-02   -2.0188663E-20
  1.4940000E-02   -3.0849536E-18
  1.4975000E-02   -1.2158074E-18
  1.5010000E-02    3.6914531E-18
  1.5045000E-02    3.0769936E-18
  1.5080000E-02   -3.8063994E-18
  1.5115000E-02   -5.5632959E-18
  1.5150000E-02    3.0410898E-18
  1.5185000E-02    8.5178394E-18
  1.5220000E-02   -9.5055450E-19
  1.5255000E-02   -1.1554552E-17
  1.5290000E-02   -2.8901097E-18
  1.5325000E-02    1.3994814E-17
  1.5360000E-02    8.7594043E-18
  1.5395000E-02   -1.4837111E-17
  1.5430000E-02   -1.6611319E-17
  1.5465000E-02    1.2792088E-17
  1.5500000E-02    2.5857704E-17
  1.5535000E-02   -6.4198778E-18
  1.5570000E-02   -3.5142858E-17
  1.5605000E-02   -5.5956812E-18
  1.5640000E-02    4.2167077E-17
  1.5675001E-02    2.4015988E-17
  1.5710000E-02   -4.3641818E-17
  1.5745001E-02   -4.8470014E-17
  1.5780000E-02    3.5479527E-17
  1.5814999E-02    7.6788930E-17
  1.5850000E-02   -1.3325122E-17
  1.5884999E-02   -1.0437675E-16
  1.5920000E-02   -2.6486753E-17
  1.5954999E-02    1.2381419E-16
  1.5990000E-02    8.5528755E-17
  1.6024999E-02   -1.2495880E-16
  1.6060000E-02   -1.6152393E-16
  1.6094999E-02    9.5837933E-17
  1.6130000E-02    2.4648548E-16
  1.6164999E-02   -2.4603122E-17
  1.6200000E-02   -3.2519487E-16
  1.6235000E-02   -9.7310838E-17
  1.6270000E-02    3.7464828E-16
  1.6305000E-02    2.7092354E-16
  1.6340001E-02   -3.6522660E-16
  1.6375000E-02   -4.8481244E-16
  1.6410001E-02    2.6433815E-16
  1.6445000E-02    7.1052263E-16
  1.6480001E-02   -4.3054850E-17
  1.6515000E-02   -8.9970527E-16
  1.6550001E-02   -3.1424475E-16
  1.6585000E-02    9.8479343E-16
  1.6620001E-02    7.9803574E-16
  1.6655000E-02   -8.8512169E-16
  1.6690001E-02   -1.3615063E-15
  1.6725000E-02    5.2001904E-16
  1.6759999E-02    1.9111867E-15
  1.6795000E-02    1.7060879E-16
  1.6829999E-02   -2.3044493E-15
  1.6865000E-02   -1.1994675E-15
  1.6899999E-02    2.3584087E-15
  1.6935000E-02    2.5024542E-15
  1.6969999E-02   -1.8742131E-15
  1.7005000E-02   -3.9130207E-15
  1.7039999E-02    6.7872432E-16
  1.7075000E-02    5.1491624E-15
  1.7109999E-02    1.3180075E-15
  1.7145000E-02   -5.8232393E-15
  1.7180000E-02   -4.0561829E-15
  1.7215000E-02    5.4841661E-15
  1.7250000E-02    7.2633092E-15
  1.7285001E-02   -3.6978070E-15
  1.7320000E-02   -1.0413239E-14
  1.7355001E-02    1.6422944E-16
  1.7390000E-02    1.2729115E-14
  1.7425001E-02    5.1400174E-15
  1.7460000E-02   -1.3251538E-14
  1.7495001E-02   -1.1819036E-14
  1.7530000E-02    1.0986753E-14
  1.7565001E-02    1.8950887E-14
  1.7600000E-02   -5.1355205E-15
  1.7635001E-02   -2.5062033E-14
  1.7670000E-02   -4.6172168E-15
  1.7704999E-02    2.8228401E-14
  1.7740000E-02    1.7797526E-14
  1.7774999E-02   -2.6336631E-14
  1.7810000E-02   -3.2893427E-14
  1.7844999E-02    1.7513194E-14
  1.7880000E-02    4.7250588E-14
  1.7914999E-02   -6.8852391E-16
  1.7950000E-02   -5.7204770E-14
  1.7984999E-02   -2.3785979E-14
  1.8020000E-02    5.8522780E-14
  1.8054999E-02    5.3600645E-14
  1.8090000E-02   -4.7175951E-14
  1.8124999E-02   -8.4199500E-14
  1.8160000E-02    2.0394858E-14
  1.8195000E-02    1.0892008E-13
  1.8230001E-02    2.2139153E-14
  1.8265000E-02   -1.1970528E-13
  1.8300001E-02   -7.7205495E-14
  1.8335000E-02    1.0844645E-13
  1.8370001E-02    1.3737068E-13
  1.8405000E-02   -6.8880218E-14
  1.8440001E-02   -1.9106181E-13
  1.8475000E-02   -1.2071180E-15
  1.8510001E-02    2.2366374E-13
  1.8545000E-02    9.7888677E-14
  1.8580001E-02   -2.1976571E-13
  1.8615000E-02   -2.0967257E-13
  1.8650001E-02    1.6644794E-13
  1.8685000E-02    3.1733950E-13
  1.8719999E-02   -5.7197492E-14
  1.8755000E-02   -3.9554709E-13
  1.8789999E-02   -1.0426021E-13
  1.8825000E-02    4.1645149E-13
  1.8859999E-02    3.0116374E-13
  1.8895000E-02   -3.5519347E-13
  1.8929999E-02   -5.0297901E-13
  1.8965000E-02    1.9659010E-13
  1.8999999E-02    6.6760795E-13
  1.9035000E-02    5.8142998E-14
  1.9069999E-02   -7.4700673E-13
  1.9105000E-02   -3.8621333E-13
  1.9140000E-02    6.9601681E-13
  1.9175000E-02    7.4132562E-13
  1.9210000E-02   -4.8337842E-13
  1.9245001E-02   -1.0565003E-12
  1.9280000E-02    1.0305658E-13
  1.9315001E-02    1.2524509E-12
  1.9350000E-02    4.1664353E-13
  1.9385001E-02   -1.2512852E-12
  1.9420000E-02   -1.0089202E-12
  1.9455001E-02    9.9397877E-13
  1.9490000E-02    1.5716956E-12
  1.9525001E-02   -4.5873055E-13
  1.9560000E-02   -1.9795862E-12
  1.9595001E-02   -3.2369414E-13
  1.9630000E-02    2.1043781E-12
  1.9664999E-02    1.2619152E-12
  1.9700000E-02   -1.8417446E-12
  1.9734999E-02   -2.2069607E-12
  1.9770000E-02    1.1399078E-12
  1.9804999E-02    2.9685880E-12
  1.9840000E-02   -2.4426216E-14
  1.9874999E-02   -3.3447368E-12
  1.9910000E-02   -1.3873555E-12
  1.9944999E-02    3.1609214E-12
  1.9980000E-02    2.8878707E-12
  2.0014999E-02   -2.3134257E-12
  2.0050000E-02   -4.2004668E-12
  2.0085000E-02    8.0785671E-13
  2.0120000E-02    5.0201284E-12
  2.0155000E-02    1.2163313E-12
  2.0190001E-02   -5.0695520E-12
  2.0225000E-02   -3.4837391E-12
  2.0260001E-02    4.1620526E-12
  2.0295000E-02    5.6087582E-12
  2.0330001E-02   -2.2594628E-12
  2.0365000E-02   -7.1497053E-12
  2.0400001E-02   -4.8823066E-13
  2.0435000E-02    7.6859205E-12
  2.0470001E-02    3.7336488E-12
  2.0505000E-02   -6.9064268E-12
  2.0540001E-02   -6.9612367E-12
  2.0575000E-02    4.6939722E-12
  2.0609999E-02    9.5564424E-12
  2.0645000E-02   -1.1861614E-12
  2.0679999E-02   -1.0908251E-11
  2.0715000E-02   -3.2033382E-12
  2.0749999E-02    1.0530155E-11
  2.0785000E-02    7.8152484E-12
  2.0819999E-02   -8.1780667E-12
  2.0855000E-02   -1.1829865E-11
  2.0889999E-02    3.9403849E-12
  2.0925000E-02    1.4399030E-11
  2.0959999E-02    1.7229073E-12
  2.0995000E-02   -1.4805891E-11
  2.1029999E-02   -8.0087065E-12
  2.1065000E-02    1.2624434E-11
  2.1100000E-02    1.3871819E-11
  2.1135001E-02   -7.8462107E-12
  2.1170000E-02   -1.8189405E-11
  2.1205001E-02    9.4349181E-13
  2.1240000E-02    1.9964809E-11
  2.1275001E-02    7.1533716E-12
  2.1310000E-02   -1.8535043E-11
  2.1345001E-02   -1.5171779E-11
  2.1380000E-02    1.3740229E-11
  2.1415001E-02    2.1694884E-11
  2.1450000E-02   -6.0156216E-12
  2.1485001E-02   -2.5411949E-11
  2.1520000E-02   -3.6220517E-12
  2.1555001E-02    2.5376357E-11
  2.1590000E-02    1.3703385E-11
  2.1624999E-02   -2.1219469E-11
  2.1660000E-02   -2.2536266E-11
  2.1694999E-02    1.3272240E-11
  2.1730000E-02    2.8499866E-11
  2.1764999E-02   -2.5611973E-12
  2.1800000E-02   -3.0348089E-11
  2.1834999E-02   -9.3306387E-12
  2.1870000E-02    2.7461059E-11
  2.1904999E-02    2.0518762E-11
  2.1940000E-02   -1.9989690E-11
  2.1974999E-02   -2.9142067E-11
  2.2010000E-02    8.8585823E-12
  2.2045000E-02    3.3693871E-11
  2.2080000E-02    4.3779013E-12
  2.2115000E-02   -3.3290974E-11
  2.2150001E-02   -1.7798945E-11
  2.2185000E-02    2.7825334E-11
  2.2220001E-02    2.9444790E-11
  2.2255000E-02   -1.7969230E-11
  2.2290001E-02   -3.7639714E-11
  2.2325000E-02    5.0391510E-12
  2.2360001E-02    4.1244019E-11
  2.2395000E-02    9.2436683E-12
  2.2430001E-02   -3.9789932E-11
  2.2465000E-02   -2.3035917E-11
  2.2500001E-02    3.3487484E-11
  2.2535000E-02    3.4633234E-11
  2.2569999E-02   -2.3122107E-11
  2.2605000E-02   -4.2659695E-11
  2.2639999E-02    9.8900029E-12
  2.2675000E-02    4.6164177E-11
  2.2709999E-02    4.7722724E-12
  2.2745000E-02   -4.4635871E-11
  2.2779999E-02   -1.9319782E-11
  2.2815000E-02    3.7978710E-11
  2.2849999E-02    3.2176140E-11
  2.2885000E-02   -2.6493184E-11
  2.2919999E-02   -4.1774060E-11
  2.2955000E-02    1.0902042E-11
  2.2990000E-02    4.6606732E-11
  2.3025000E-02    7.5775705E-12
  2.3060000E-02   -4.5346320E-11
  2.3095001E-02   -2.7155726E-11
  2.3130000E-02    3.7066416E-11
  2.3165001E-02    4.5461485E-11
  2.3200000E-02   -2.1558260E-11
  2.3235001E-02   -5.9690669E-11
  2.3270000E-02   -3.2793080E-13
  2.3305001E-02    6.6971352E-11
  2.3340000E-02    2.6442735E-11
  2.3375001E-02   -6.4939464E-11
  2.3410000E-02   -5.3343874E-11
  2.3445001E-02    5.2426254E-11
  2.3480000E-02    7.6661510E-11
  2.3514999E-02   -3.0074075E-11
  2.3550000E-02   -9.1844012E-11
  2.3584999E-02    6.5478666E-13
  2.3620000E-02    9.5174577E-11
  2.3654999E-02    3.1102756E-11
  2.3690000E-02   -8.4821275E-11
  2.3724999E-02   -5.9255982E-11
  2.3760000E-02    6.1606831E-11
  2.3794999E-02    7.7869121E-11
  2.3830000E-02   -2.9205079E-11
  2.3864999E-02   -8.2435669E-11
  2.3900000E-02   -6.3945741E-12
  2.3934999E-02    7.1115662E-11
  2.3970000E-02    3.8102667E-11
  2.4005000E-02   -4.5405232E-11
  2.4040001E-02   -5.9353390E-11
  2.4075000E-02    9.9888223E-12
  2.4110001E-02    6.5712352E-11
  2.4145000E-02    2.8247103E-11
  2.4180001E-02   -5.6016778E-11
  2.4215000E-02   -6.1809953E-11
  2.4250001E-02    3.2716201E-11
  2.4285000E-02    8.4392722E-11
  2.4320001E-02   -1.3041248E-12
  2.4355000E-02   -9.2391136E-11
  2.4390001E-02   -3.1017484E-11
  2.4425000E-02    8.5760531E-11
  2.4460001E-02    5.7113075E-11
  2.4495000E-02   -6.7990225E-11
  2.4529999E-02   -7.1693318E-11
  2.4565000E-02    4.5184311E-11
  2.4599999E-02    7.2660593E-11
  2.4635000E-02   -2.4442297E-11
  2.4669999E-02   -6.1660982E-11
  2.4705000E-02    1.1909734E-11
  2.4739999E-02    4.3643419E-11
  2.4775000E-02   -1.0981629E-11
  2.4809999E-02   -2.5440417E-11
  2.4845000E-02    2.1180805E-11
  2.4879999E-02    1.3648470E-11
  2.4915000E-02   -3.8158140E-11
  2.4950000E-02   -1.2368689E-11
  2.4985000E-02    5.5011072E-11
  2.5020000E-02    2.1574789E-11
  2.5055001E-02   -6.4675994E-11
  2.5090000E-02   -3.6830067E-11
  2.5125001E-02    6.2656366E-11
  2.5160000E-02    5.0690563E-11
  2.5195001E-02   -4.9041375E-11
  2.5230000E-02   -5.5482629E-11
  2.5265001E-02    2.8863181E-11
  2.5300000E-02    4.6476854E-11
  2.5335001E-02   -1.0398672E-11
  2.5370000E-02   -2.4113241E-11
  2.5405001E-02    1.9094828E-12
  2.5440000E-02   -5.8521200E-12
  2.5474999E-02   -8.1511742E-12
  2.5510000E-02    3.4557256E-11
  2.5544999E-02    2.8285081E-11
  2.5580000E-02   -5.3719116E-11
  2.5614999E-02   -5.6285469E-11
  2.5650000E-02    5.9067230E-11
  2.5684999E-02    8.3718553E-11
  2.5720000E-02   -5.1828999E-11
  2.5754999E-02   -1.0352162E-10
  2.5790000E-02    3.7535631E-11
  2.5824999E-02    1.1284261E-10
  2.5860000E-02   -2.2839015E-11
  2.5895000E-02   -1.1347988E-10
  2.5930000E-02    1.2136043E-11
  2.5965000E-02    1.0978739E-10
  2.6000001E-02   -5.9505183E-12
  2.6035000E-02   -1.0543581E-10
  2.6070001E-02    1.9746216E-12
  2.6105000E-02    1.0120270E-10
  2.6140001E-02    2.1061828E-12
  2.6175000E-02   -9.5283566E-11
  2.6210001E-02   -6.1724610E-12
  2.6245000E-02    8.5774339E-11
  2.6280001E-02    7.4978348E-12
  2.6315000E-02   -7.3365085E-11
  2.6350001E-02   -3.0797519E-12
  2.6385000E-02    6.2054160E-11
  2.6419999E-02   -7.1195328E-12
  2.6455000E-02   -5.6914480E-11
  2.6489999E-02    1.8546369E-11
  2.6525000E-02    5.9985808E-11
  2.6559999E-02   -2.3975740E-11
  2.6595000E-02   -6.7251295E-11
  2.6629999E-02    1.8524089E-11
  2.6665000E-02    6.9700329E-11
  2.6699999E-02   -4.4509561E-12
  2.6735000E-02   -5.8807986E-11
  2.6769999E-02   -8.2232710E-12
  2.6805000E-02    3.3209033E-11
  2.6839999E-02    6.7012524E-12
  2.6875000E-02   -1.9447202E-12
  2.6910000E-02    1.6347758E-11
  2.6945001E-02   -1.8717639E-11
  2.6980000E-02   -5.6188033E-11