 -4.8000002E-03    1.0000000E-24
 -4.7650002E-03    1.0000002E-24
 -4.7300002E-03    1.0000001E-24
 -4.6950001E-03    1.0000001E-24
 -4.6600001E-03    1.0000002E-24
 -4.6250001E-03    1.0000000E-24
 -4.5900000E-03    1.0000000E-24
 -4.5550000E-03    1.0000002E-24
 -4.5200000E-03    1.0000002E-24
 -4.4849999E-03    9.9999972E-25
 -4.4499999E-03    1.0000001E-24
 -4.4149999E-03    1.0000005E-24
 -4.3799998E-03    1.0000003E-24
 -4.3449998E-03    9.9999982E-25
 -4.3100002E-03    1.0000001E-24
 -4.2750002E-03    1.0000005E-24
 -4.2400002E-03    1.0000005E-24
 -4.2050001E-03    1.0000000E-24
 -4.1700001E-03    9.9999963E-25
 -4.1350001E-03    1.0000001E-24
 -4.1000000E-03    1.0000005E-24
 -4.0650000E-03    1.0000000E-24
 -4.0300000E-03    9.9999963E-25
 -3.9949999E-03    1.0000000E-24
 -3.9599999E-03    1.0000002E-24
 -3.9249999E-03    1.0000001E-24
 -3.8900001E-03    1.0000002E-24
 -3.8550000E-03    1.0000002E-24
 -3.8200000E-03    1.0000000E-24
 -3.7849999E-03    1.0000000E-24
 -3.7499999E-03    1.0000003E-24
 -3.7150001E-03    9.9999982E-25
 -3.6800001E-03    9.9999982E-25
 -3.6450000E-03    1.0000004E-24
 -3.6100000E-03    1.0000005E-24
 -3.5750000E-03    9.9999992E-25
 -3.5399999E-03    9.9999982E-25
 -3.5049999E-03    1.0000003E-24
 -3.4700001E-03    1.0000006E-24
 -3.4350001E-03    1.0000000E-24
 -3.4000000E-03    9.9999992E-25
 -3.3650000E-03    9.9999992E-25
 -3.3300000E-03    9.9999963E-25
 -3.2949999E-03    1.0000001E-24
 -3.2599999E-03    1.0000009E-24
 -3.2250001E-03    1.0000003E-24
 -3.1900001E-03    9.9999943E-25
 -3.1550000E-03    1.0000000E-24
 -3.1200000E-03    1.0000006E-24
 -3.0850000E-03    9.9999992E-25
 -3.0499999E-03    9.9999963E-25
 -3.0149999E-03    1.0000008E-24
 -2.9800001E-03    1.0000011E-24
 -2.9450001E-03    9.9999943E-25
 -2.9100000E-03    9.9999893E-25
 -2.8750000E-03    1.0000003E-24
 -2.8400000E-03    1.0000004E-24
 -2.8049999E-03    9.9999943E-25
 -2.7699999E-03    1.0000001E-24
 -2.7350001E-03    1.0000007E-24
 -2.7000001E-03    1.0000001E-24
 -2.6650000E-03    1.0000002E-24
 -2.6300000E-03    1.0000007E-24
 -2.5950000E-03    9.9999982E-25
 -2.5599999E-03    9.9999963E-25
 -2.5249999E-03    1.0000007E-24
 -2.4900001E-03    1.0000005E-24
 -2.4550001E-03    9.9999933E-25
 -2.4200000E-03    9.9999972E-25
 -2.3850000E-03    1.0000009E-24
 -2.3500000E-03    1.0000000E-24
 -2.3149999E-03    9.9999913E-25
 -2.2799999E-03    1.0000004E-24
 -2.2450001E-03    1.0000008E-24
 -2.2100001E-03    9.9999923E-25
 -2.1750000E-03    9.9999903E-25
 -2.1400000E-03    1.0000006E-24
 -2.1050000E-03    1.0000008E-24
 -2.0699999E-03    9.9999992E-25
 -2.0349999E-03    1.0000000E-24
 -2.0000001E-03    1.0000003E-24
 -1.9650001E-03    1.0000001E-24
 -1.9300000E-03    1.0000002E-24
 -1.8950000E-03    1.0000006E-24
 -1.8600000E-03    1.0000001E-24
 -1.8250000E-03    9.9999972E-25
 -1.7900000E-03    9.9999943E-25
 -1.7550000E-03    9.9999982E-25
 -1.7199999E-03    1.0000007E-24
 -1.6850000E-03    1.0000012E-24
 -1.6500000E-03    1.0000003E-24
 -1.6150000E-03    9.9999893E-25
 -1.5800000E-03    9.9999913E-25
 -1.5450000E-03    1.0000005E-24
 -1.5100000E-03    1.0000007E-24
 -1.4750001E-03    9.9999982E-25
 -1.4400000E-03    9.9999992E-25
 -1.4050000E-03    1.0000007E-24
 -1.3700000E-03    1.0000000E-24
 -1.3350000E-03    9.9999893E-25
 -1.3000000E-03    9.9999982E-25
 -1.2650000E-03    1.0000005E-24
 -1.2300001E-03    1.0000000E-24
 -1.1950000E-03    1.0000000E-24
 -1.1600000E-03    1.0000003E-24
 -1.1250000E-03    1.0000004E-24
 -1.0900000E-03    1.0000010E-24
 -1.0550000E-03    1.0000009E-24
 -1.0200000E-03    9.9999923E-25
 -9.8500005E-04    9.9999903E-25
 -9.5000002E-04    1.0000013E-24
 -9.1499998E-04    1.0000014E-24
 -8.8000001E-04    9.9999943E-25
 -8.4499997E-04    9.9999992E-25
 -8.1000000E-04    1.0000007E-24
 -7.7500002E-04    9.9999943E-25
 -7.3999999E-04    9.9999903E-25
 -7.0500001E-04    1.0000007E-24
 -6.6999998E-04    1.0000007E-24
 -6.3500000E-04    9.9999953E-25
 -6.0000003E-04    9.9999982E-25
 -5.6499999E-04    1.0000002E-24
 -5.3000002E-04    9.9999933E-25
 -4.9499999E-04    9.9999982E-25
 -4.6000001E-04    1.0000016E-24
 -4.2500001E-04    1.0000011E-24
 -3.9000000E-04    9.9999943E-25
 -3.5500000E-04    1.0000003E-24
 -3.1999999E-04    1.0000007E-24
 -2.8499999E-04    9.9999953E-25
 -2.5000001E-04    9.9999943E-25
 -2.1499999E-04    1.0000010E-24
 -1.8000000E-04    1.0000011E-24
 -1.4500000E-04    9.9999963E-25
 -1.1000000E-04    9.9999893E-25
 -7.5000004E-05    9.9999972E-25
 -3.9999999E-05    9.9999982E-25
 -4.9999999E-06    9.9999943E-25
  2.9999999E-05    1.0000001E-24
  6.5000000E-05    1.0000010E-24
  9.9999997E-05    1.0000003E-24
  1.3499999E-04    9.9999953E-25
  1.7000000E-04    1.0000002E-24
  2.0500000E-04    1.0000010E-24
  2.3999999E-04    1.0000006E-24
  2.7500000E-04    1.0000002E-24
  3.1000000E-04    1.0000002E-24
  3.4500001E-04    1.0000002E-24
  3.8000001E-04    1.0000003E-24
  4.1499999E-04    1.0000005E-24
  4.4999999E-04    9.9999893E-25
  4.8500000E-04    9.9999834E-25
  5.2000000E-04    1.0000009E-24
  5.5499998E-04    1.0000013E-24
  5.9000001E-04    9.9999884E-25
  6.2499999E-04    9.9999982E-25
  6.6000002E-04    1.0000014E-24
  6.9500000E-04    9.9999943E-25
  7.3000003E-04    9.9999933E-25
  7.6500000E-04    1.0000019E-24
  7.9999998E-04    1.0000009E-24
  8.3500001E-04    9.9999854E-25
  8.6999999E-04    1.0000000E-24
  9.0500002E-04    1.0000010E-24
  9.4000000E-04    9.9999903E-25
  9.7499997E-04    9.9999972E-25
  1.0100000E-03    1.0000016E-24
  1.0450000E-03    1.0000005E-24
  1.0800000E-03    9.9999903E-25
  1.1150000E-03    9.9999982E-25
  1.1500000E-03    1.0000001E-24
  1.1849999E-03    9.9999953E-25
  1.2200000E-03    1.0000006E-24
  1.2550000E-03    1.0000010E-24
  1.2900000E-03    1.0000002E-24
  1.3250000E-03    1.0000006E-24
  1.3600000E-03    1.0000009E-24
  1.3950000E-03    9.9999933E-25
  1.4299999E-03    9.9999943E-25
  1.4650000E-03    1.0000010E-24
  1.5000000E-03    9.9999992E-25
  1.5350000E-03    9.9999844E-25
  1.5700000E-03    1.0000004E-24
  1.6050000E-03    1.0000008E-24
  1.6400000E-03    9.9999795E-25
  1.6749999E-03    9.9999953E-25
  1.7100000E-03    1.0000031E-24
  1.7450000E-03    1.0000004E-24
  1.7800000E-03    9.9999815E-25
  1.8150000E-03    1.0000014E-24
  1.8500000E-03    1.0000017E-24
  1.8850000E-03    9.9999824E-25
  1.9200000E-03    9.9999893E-25
  1.9550000E-03    1.0000014E-24
  1.9900000E-03    1.0000003E-24
  2.0250001E-03    9.9999933E-25
  2.0600001E-03    1.0000006E-24
  2.0949999E-03    1.0000015E-24
  2.1299999E-03    1.0000008E-24
  2.1650000E-03    9.9999913E-25
  2.2000000E-03    9.9999913E-25
  2.2350000E-03    1.0000009E-24
  2.2700001E-03    1.0000005E-24
  2.3050001E-03    9.9999834E-25
  2.3399999E-03    9.9999992E-25
  2.3749999E-03    1.0000030E-24
  2.4100000E-03    1.0000010E-24
  2.4450000E-03    9.9999765E-25
  2.4800000E-03    9.9999953E-25
  2.5150001E-03    1.0000022E-24
  2.5500001E-03    1.0000005E-24
  2.5849999E-03    9.9999864E-25
  2.6199999E-03    9.9999953E-25
  2.6550000E-03    1.0000003E-24
  2.6900000E-03    1.0000001E-24
  2.7250000E-03    1.0000006E-24
  2.7600001E-03    1.0000002E-24
  2.7950001E-03    1.0000000E-24
  2.8299999E-03    1.0000016E-24
  2.8649999E-03    1.0000012E-24
  2.9000000E-03    9.9999795E-25
  2.9350000E-03    9.9999746E-25
  2.9700000E-03    1.0000007E-24
  3.0050001E-03    1.0000021E-24
  3.0400001E-03    1.0000008E-24
  3.0749999E-03    9.9999854E-25
  3.1099999E-03    9.9999815E-25
  3.1450000E-03    1.0000007E-24
  3.1800000E-03    1.0000018E-24
  3.2150000E-03    9.9999972E-25
  3.2500001E-03    9.9999903E-25
  3.2850001E-03    1.0000012E-24
  3.3199999E-03    1.0000018E-24
  3.3549999E-03    1.0000005E-24
  3.3900000E-03    9.9999992E-25
  3.4250000E-03    1.0000003E-24
  3.4600000E-03    1.0000007E-24
  3.4950001E-03    9.9999953E-25
  3.5300001E-03    9.9999765E-25
  3.5649999E-03    9.9999834E-25
  3.5999999E-03    1.0000010E-24
  3.6350000E-03    1.0000014E-24
  3.6700000E-03    9.9999953E-25
  3.7050000E-03    9.9999982E-25
  3.7400001E-03    1.0000013E-24
  3.7750001E-03    1.0000001E-24
  3.8099999E-03    9.9999923E-25
  3.8449999E-03    1.0000014E-24
  3.8800000E-03    1.0000016E-24
  3.9149998E-03    9.9999864E-25
  3.9499998E-03    9.9999943E-25
  3.9849998E-03    1.0000027E-24
  4.0199999E-03    1.0000002E-24
  4.0549999E-03    9.9999686E-25
  4.0899999E-03    9.9999923E-25
  4.1250000E-03    1.0000020E-24
  4.1600000E-03    1.0000006E-24
  4.1950000E-03    9.9999923E-25
  4.2300001E-03    9.9999982E-25
  4.2650001E-03    1.0000008E-24
  4.3000001E-03    1.0000001E-24
  4.3350002E-03    9.9999824E-25
  4.3700002E-03    9.9999933E-25
  4.4049998E-03    1.0000014E-24
  4.4399998E-03    9.9999963E-25
  4.4749998E-03    9.9999874E-25
  4.5099999E-03    1.0000025E-24
  4.5449999E-03    1.0000018E-24
  4.5799999E-03    9.9999647E-25
  4.6150000E-03    9.9999785E-25
  4.6500000E-03    1.0000032E-24
  4.6850001E-03    1.0000019E-24
  4.7200001E-03    9.9999815E-25
  4.7550001E-03    1.0000013E-24
  4.7900002E-03    1.0000043E-24
  4.8250002E-03    9.9999963E-25
  4.8600002E-03    9.9999598E-25
  4.8949998E-03    9.9999963E-25
  4.9299998E-03    1.0000020E-24
  4.9649999E-03    9.9999874E-25
  4.9999999E-03    9.9999913E-25
  5.0349999E-03    1.0000023E-24
  5.0700000E-03    1.0000007E-24
  5.1050000E-03    9.9999765E-25
  5.1400000E-03    9.9999893E-25
  5.1750001E-03    9.9999992E-25
  5.2100001E-03    9.9999903E-25
  5.2450001E-03    1.0000002E-24
  5.2800002E-03    1.0000025E-24
  5.3150002E-03    1.0000019E-24
  5.3500002E-03    9.9999982E-25
  5.3849998E-03    9.9999982E-25
  5.4199998E-03    1.0000010E-24
  5.4549999E-03    1.0000015E-24
  5.4899999E-03    1.0000004E-24
  5.5249999E-03    9.9999903E-25
  5.5600000E-03    9.9999963E-25
  5.5950000E-03    1.0000003E-24
  5.6300000E-03    1.0000000E-24
  5.6650001E-03    9.9999933E-25
  5.7000001E-03    9.9999953E-25
  5.7350001E-03    1.0000000E-24
  5.7700002E-03    1.0000006E-24
  5.8050002E-03    1.0000007E-24
  5.8400002E-03    1.0000002E-24
  5.8749998E-03    1.0000004E-24
  5.9099998E-03    1.0000015E-24
  5.9449999E-03    1.0000008E-24
  5.9799999E-03    9.9999913E-25
  6.0149999E-03    1.0000001E-24
  6.0500000E-03    1.0000014E-24
  6.0850000E-03    9.9999963E-25
  6.1200000E-03    9.9999854E-25
  6.1550001E-03    1.0000001E-24
  6.1900001E-03    9.9999963E-25
  6.2250001E-03    9.9999844E-25
  6.2600002E-03    1.0000009E-24
  6.2950002E-03    1.0000021E-24
  6.3299998E-03    9.9999923E-25
  6.3649998E-03    9.9999864E-25
  6.3999998E-03    1.0000011E-24
  6.4349999E-03    1.0000020E-24
  6.4699999E-03    9.9999992E-25
  6.5049999E-03    9.9999805E-25
  6.5400000E-03    9.9999963E-25
  6.5750000E-03    1.0000022E-24
  6.6100000E-03    1.0000000E-24
  6.6450001E-03    9.9999755E-25
  6.6800001E-03    1.0000012E-24
  6.7150001E-03    1.0000036E-24
  6.7500002E-03    9.9999913E-25
  6.7850002E-03    9.9999755E-25
  6.8199998E-03    1.0000010E-24
  6.8549998E-03    1.0000004E-24
  6.8899998E-03    9.9999874E-25
  6.9249999E-03    1.0000007E-24
  6.9599999E-03    1.0000016E-24
  6.9949999E-03    9.9999854E-25
  7.0300000E-03    9.9999795E-25
  7.0650000E-03    1.0000009E-24
  7.1000000E-03    1.0000019E-24
  7.1350001E-03    9.9999963E-25
  7.1700001E-03    9.9999903E-25
  7.2050001E-03    1.0000016E-24
  7.2400002E-03    1.0000015E-24
  7.2750002E-03    9.9999874E-25
  7.3099998E-03    9.9999923E-25
  7.3449998E-03    1.0000022E-24
  7.3799998E-03    1.0000007E-24
  7.4149999E-03    9.9999726E-25
  7.4499999E-03    9.9999874E-25
  7.4850000E-03    1.0000022E-24
  7.5200000E-03    1.0000014E-24
  7.5550000E-03    9.9999834E-25
  7.5900001E-03    9.9999884E-25
  7.6250001E-03    1.0000013E-24
  7.6600001E-03    1.0000007E-24
  7.6950002E-03    9.9999874E-25
  7.7300002E-03    1.0000001E-24
  7.7650002E-03    1.0000033E-24
  7.7999998E-03    1.0000017E-24
  7.8349998E-03    9.9999815E-25
  7.8699999E-03    9.9999874E-25
  7.9049999E-03    1.0000008E-24
  7.9399999E-03    1.0000001E-24
  7.9750000E-03    9.9999874E-25
  8.0100000E-03    1.0000005E-24
  8.0450000E-03    1.0000026E-24
  8.0800001E-03    1.0000009E-24
  8.1150001E-03    9.9999854E-25
  8.1500001E-03    9.9999884E-25
  8.1850002E-03    9.9999992E-25
  8.2200002E-03    9.9999963E-25
  8.2550002E-03    1.0000000E-24
  8.2900003E-03    1.0000005E-24
  8.3250003E-03    1.0000002E-24
  8.3600003E-03    1.0000003E-24
  8.3950004E-03    1.0000008E-24
  8.4300004E-03    9.9999992E-25
  8.4650004E-03    9.9999874E-25
  8.5000005E-03    9.9999864E-25
  8.5349996E-03    9.9999982E-25
  8.5699996E-03    1.0000019E-24
  8.6049996E-03    1.0000017E-24
  8.6399997E-03    9.9999913E-25
  8.6749997E-03    9.9999913E-25
  8.7099997E-03    1.0000018E-24
  8.7449998E-03    1.0000015E-24
  8.7799998E-03    9.9999874E-25
  8.8149998E-03    9.9999923E-25
  8.8499999E-03    1.0000012E-24
  8.8849999E-03    9.9999992E-25
  8.9199999E-03    9.9999913E-25
  8.9550000E-03    1.0000014E-24
  8.9900000E-03    1.0000019E-24
  9.0250000E-03    9.9999854E-25
  9.0600001E-03    9.9999667E-25
  9.0950001E-03    9.9999923E-25
  9.1300001E-03    1.0000014E-24
  9.1650002E-03    1.0000010E-24
  9.2000002E-03    1.0000016E-24
  9.2350002E-03    1.0000022E-24
  9.2700003E-03    9.9999903E-25
  9.3050003E-03    9.9999667E-25
  9.3400003E-03    9.9999982E-25
  9.3750004E-03    1.0000027E-24
  9.4100004E-03    1.0000015E-24
  9.4450004E-03    9.9999923E-25
  9.4799995E-03    9.9999864E-25
  9.5149996E-03    1.0000002E-24
  9.5499996E-03    1.0000007E-24
  9.5849996E-03    9.9999864E-25
  9.6199997E-03    9.9999953E-25
  9.6549997E-03    1.0000031E-24
  9.6899997E-03    1.0000018E-24
  9.7249998E-03    9.9999785E-25
  9.7599998E-03    9.9999972E-25
  9.7949998E-03    1.0000033E-24
  9.8299999E-03    1.0000012E-24
  9.8649999E-03    9.9999765E-25
  9.8999999E-03    9.9999795E-25
  9.9350000E-03    1.0000005E-24
  9.9700000E-03    1.0000009E-24
  1.0005000E-02    9.9999844E-25
  1.0040000E-02    9.9999953E-25
  1.0075000E-02    1.0000025E-24
  1.0110000E-02    1.0000001E-24
  1.0145000E-02    9.9999677E-25
  1.0180000E-02    9.9999913E-25
  1.0215000E-02    1.0000017E-24
  1.0250000E-02    1.0000003E-24
  1.0285000E-02    9.9999992E-25
  1.0320000E-02    1.0000015E-24
  1.0355000E-02    1.0000010E-24
  1.0390000E-02    9.9999913E-25
  1.0425000E-02    9.9999963E-25
  1.0460000E-02    1.0000018E-24
  1.0495000E-02    1.0000001E-24
  1.0530000E-02    9.9999706E-25
  1.0565000E-02    1.0000000E-24
  1.0600000E-02    1.0000032E-24
  1.0635000E-02    9.9999972E-25
  1.0670000E-02    9.9999795E-25
  1.0705000E-02    1.0000008E-24
  1.0740000E-02    1.0000006E-24
  1.0775000E-02    9.9999854E-25
  1.0810000E-02    9.9999903E-25
  1.0845000E-02    1.0000015E-24
  1.0880000E-02    1.0000036E-24
  1.0915000E-02    1.0000016E-24
  1.0950000E-02    9.9999805E-25
  1.0985000E-02    9.9999923E-25
  1.1020000E-02    1.0000009E-24
  1.1055000E-02    9.9999854E-25
  1.1090000E-02    9.9999795E-25
  1.1125000E-02    1.0000008E-24
  1.1160000E-02    1.0000013E-24
  1.1195000E-02    1.0000006E-24
  1.1230000E-02    1.0000003E-24
  1.1265000E-02    9.9999933E-25
  1.1300000E-02    9.9999923E-25
  1.1335000E-02    9.9999943E-25
  1.1370000E-02    9.9999874E-25
  1.1405000E-02    1.0000013E-24
  1.1440000E-02    1.0000034E-24
  1.1475000E-02    9.9999992E-25
  1.1510000E-02    9.9999795E-25
  1.1545000E-02    1.0000009E-24
  1.1580000E-02    1.0000014E-24
  1.1615000E-02    9.9999874E-25
  1.1650000E-02    9.9999824E-25
  1.1685000E-02    1.0000010E-24
  1.1720000E-02    1.0000026E-24
  1.1755000E-02    1.0000002E-24
  1.1790000E-02    9.9999815E-25
  1.1825000E-02    1.0000010E-24
  1.1860000E-02    1.0000015E-24
  1.1895000E-02    9.9999706E-25
  1.1930000E-02    9.9999736E-25
  1.1965000E-02    1.0000021E-24
  1.2000000E-02    1.0000020E-24
  1.2035000E-02    1.0000000E-24
  1.2070000E-02    9.9999992E-25
  1.2105000E-02    9.9999982E-25
  1.2140000E-02    9.9999943E-25
  1.2175000E-02    9.9999982E-25
  1.2210000E-02    1.0000002E-24
  1.2245000E-02    1.0000006E-24
  1.2280000E-02    1.0000006E-24
  1.2315000E-02    1.0000006E-24
  1.2350000E-02    1.0000018E-24
  1.2385000E-02    1.0000012E-24
  1.2420000E-02    9.9999884E-25
  1.2455000E-02    9.9999992E-25
  1.2490000E-02    1.0000016E-24
  1.2525000E-02    9.9999903E-25
  1.2560000E-02    9.9999805E-25
  1.2595000E-02    1.0000016E-24
  1.2630000E-02    1.0000007E-24
  1.2665000E-02    9.9999667E-25
  1.2700000E-02    9.9999874E-25
  1.2735000E-02    1.0000023E-24
  1.2770000E-02    9.9999982E-25
  1.2805000E-02    9.9999913E-25
  1.2840000E-02    1.0000024E-24
  1.2875000E-02    1.0000009E-24
  1.2910000E-02    9.9999765E-25
  1.2945000E-02    1.0000021E-24
  1.2980000E-02    1.0000034E-24
  1.3015000E-02    9.9999460E-25
  1.3050000E-02    9.9999627E-25
  1.3085000E-02    1.0000094E-24
  1.3120000E-02    1.0000012E-24
  1.3155000E-02    9.9998326E-25
  1.3190000E-02    1.0000025E-24
  1.3225000E-02    1.0000295E-24
  1.3260000E-02    9.9999381E-25
  1.3295000E-02    9.9995328E-25
  1.3330000E-02    1.0000124E-24
  1.3365000E-02    1.0000725E-24
  1.3400000E-02    9.9997951E-25
  1.3435000E-02    9.9989057E-25
  1.3470000E-02    1.0000287E-24
  1.3505000E-02    1.0001589E-24
  1.3540000E-02    9.9996275E-25
  1.3575000E-02    9.9977667E-25
  1.3610000E-02    1.0000441E-24
  1.3645000E-02    1.0003059E-24
  1.3680000E-02    9.9996048E-25
  1.3715000E-02    9.9960105E-25
  1.3750000E-02    1.0000191E-24
  1.3785000E-02    1.0004935E-24
  1.3820000E-02    1.0000265E-24
  1.3855000E-02    9.9942879E-25
  1.3890000E-02    9.9989057E-25
  1.3925000E-02    1.0005998E-24
  1.3960000E-02    1.0002489E-24
  1.3995000E-02    9.9948489E-25
  1.4030000E-02    9.9954968E-25
  1.4065000E-02    1.0002292E-24
  1.4100000E-02    1.0007108E-24
  1.4135000E-02    1.0003858E-24
  1.4170000E-02    9.9899649E-25
  1.4205000E-02    9.9849596E-25
  1.4240000E-02    1.0012581E-24
  1.4275000E-02    1.0033518E-24
  1.4310000E-02    9.9867296E-25
  1.4345000E-02    9.9381101E-25
  1.4380000E-02    1.0009550E-24
  1.4415000E-02    1.0102815E-24
  1.4450000E-02    1.0002575E-24
  1.4485000E-02    9.8415456E-25
  1.4520000E-02    9.9710628E-25
  1.4555000E-02    1.0229433E-24
  1.4590000E-02    1.0077339E-24
  1.4625000E-02    9.6867070E-25
  1.4660000E-02    9.8427566E-25
  1.4695000E-02    1.0402410E-24
  1.4730000E-02    1.0278765E-24
  1.4765000E-02    9.5188749E-25
  1.4800000E-02    9.5498614E-25
  1.4835000E-02    1.0522809E-24
  1.4870000E-02    1.0673551E-24
  1.4905000E-02    9.5132109E-25
  1.4940000E-02    9.0617359E-25
  1.4975000E-02    1.0316568E-24
  1.5010000E-02    1.1210841E-24
  1.5045000E-02    1.0059461E-24
  1.5080000E-02    8.5778112E-25
  1.5115000E-02    9.2775781E-25
  1.5150000E-02    1.1452276E-24
  1.5185000E-02    1.1750017E-24
  1.5220000E-02    8.8857332E-25
  1.5255000E-02    6.8070591E-25
  1.5290000E-02    1.0142123E-24
  1.5325000E-02    1.5037889E-24
  1.5360000E-02    1.1811810E-24
  1.5395000E-02    2.8442015E-25
  1.5430000E-02    4.8400033E-25
  1.5465000E-02    1.9236669E-24
  1.5500000E-02    2.0331517E-24
  1.5535000E-02   -7.1691550E-26
  1.5570000E-02   -7.6773649E-25
  1.5605000E-02    2.0714133E-24
  1.5640000E-02    3.7315704E-24
  1.5675001E-02    2.0069526E-25
  1.5710000E-02   -2.8906419E-24
  1.5745001E-02    1.0999784E-24
  1.5780000E-02    6.1355625E-24
  1.5814999E-02    2.1985715E-24
  1.5850000E-02   -5.2470121E-24
  1.5884999E-02   -2.2520835E-24
  1.5920000E-02    7.8611409E-24
  1.5954999E-02    7.1433209E-24
  1.5990000E-02   -5.4440873E-24
  1.6024999E-02   -8.7970557E-24
  1.6060000E-02    5.2898058E-24
  1.6094999E-02    1.4866118E-23
  1.6130000E-02    1.4395073E-24
  1.6164999E-02   -1.6595191E-23
  1.6200000E-02   -7.6066497E-24
  1.6235000E-02    2.0680897E-23
  1.6270000E-02    2.1901929E-23
  1.6305000E-02   -1.7162354E-23
  1.6340001E-02   -3.6535216E-23
  1.6375000E-02    1.1396522E-23
  1.6410001E-02    5.8812831E-23
  1.6445000E-02    7.8080924E-24
  1.6480001E-02   -7.8621361E-23
  1.6515000E-02   -3.5808261E-23
  1.6550001E-02    9.9884981E-23
  1.6585000E-02    8.3400407E-23
  1.6620001E-02   -1.0812114E-22
  1.6655000E-02   -1.4367652E-22
  1.6690001E-02    1.0229265E-22
  1.6725000E-02    2.2244282E-22
  1.6759999E-02   -6.3225883E-23
  1.6795000E-02   -3.0428304E-22
  1.6829999E-02   -1.3078273E-23
  1.6865000E-02    3.8251444E-22
  1.6899999E-02    1.4491102E-22
  1.6935000E-02   -4.2549350E-22
  1.6969999E-02   -3.2884524E-22
  1.7005000E-02    4.0799053E-22
  1.7039999E-02    5.6621396E-22
  1.7075000E-02   -2.8059979E-22
  1.7109999E-02   -8.2442755E-22
  1.7145000E-02    6.3189474E-24
  1.7180000E-02    1.0620711E-21
  1.7215000E-02    4.6259430E-22
  1.7250000E-02   -1.1914794E-21
  1.7285001E-02   -1.1387289E-21
  1.7320000E-02    1.1093622E-21
  1.7355001E-02    2.0126768E-21
  1.7390000E-02   -6.7082823E-22
  1.7425001E-02   -2.9987525E-21
  1.7460000E-02   -2.6142083E-22
  1.7495001E-02    3.9448991E-21
  1.7530000E-02    1.8173320E-21
  1.7565001E-02   -4.5849454E-21
  1.7600000E-02   -4.0393059E-21
  1.7635001E-02    4.5701495E-21
  1.7670000E-02    6.8509748E-21
  1.7704999E-02   -3.4631318E-21
  1.7740000E-02   -9.9536646E-21
  1.7774999E-02    8.3384854E-22
  1.7810000E-02    1.2792237E-20
  1.7844999E-02    3.6611200E-21
  1.7880000E-02   -1.4484495E-20
  1.7914999E-02   -1.0085413E-20
  1.7950000E-02    1.3872003E-20
  1.7984999E-02    1.8053660E-20
  1.8020000E-02   -9.5993850E-21
  1.8054999E-02   -2.6486530E-20
  1.8090000E-02    3.8314139E-22
  1.8124999E-02    3.3469149E-20
  1.8160000E-02    1.4637366E-20
  1.8195000E-02   -3.6161054E-20
  1.8230001E-02   -3.5345628E-20
  1.8265000E-02    3.0981594E-20
  1.8300001E-02    6.0069740E-20
  1.8335000E-02   -1.4044784E-20
  1.8370001E-02   -8.4964438E-20
  1.8405000E-02   -1.7945960E-20
  1.8440001E-02    1.0366393E-19
  1.8475000E-02    6.6446301E-20
  1.8510001E-02   -1.0732511E-19
  1.8545000E-02   -1.2941168E-19
  1.8580001E-02    8.5476612E-20
  1.8615000E-02    1.9958929E-19
  1.8650001E-02   -2.7811034E-20
  1.8685000E-02   -2.6304902E-19
  1.8719999E-02   -7.2790647E-20
  1.8755000E-02    2.9869301E-19
  1.8789999E-02    2.1620332E-19
  1.8825000E-02   -2.7937201E-19
  1.8859999E-02   -3.9027526E-19
  1.8895000E-02    1.7551436E-19
  1.8929999E-02    5.6635180E-19
  1.8965000E-02    3.8263372E-20
  1.8999999E-02   -6.9641907E-19
  1.9035000E-02   -3.7332533E-19
  1.9069999E-02    7.1389264E-19
  1.9105000E-02    8.1479968E-19
  1.9140000E-02   -5.4003789E-19
  1.9175000E-02   -1.3087254E-18
  1.9210000E-02    9.8011991E-20
  1.9245001E-02    1.7519170E-18
  1.9280000E-02    6.6467126E-19
  1.9315001E-02   -1.9889843E-18
  1.9350000E-02   -1.7460168E-18
  1.9385001E-02    1.8220485E-18
  1.9420000E-02    3.0554716E-18
  1.9455001E-02   -1.0383088E-18
  1.9490000E-02   -4.3827098E-18
  1.9525001E-02   -5.4083007E-19
  1.9560000E-02    5.3798661E-18
  1.9595001E-02    2.9893478E-18
  1.9630000E-02   -5.5703091E-18
  1.9664999E-02   -6.1910321E-18
  1.9700000E-02    4.3979696E-18
  1.9734999E-02    9.7529119E-18
  1.9770000E-02   -1.3283907E-18
  1.9804999E-02   -1.2940621E-17
  1.9840000E-02   -3.9945702E-18
  1.9874999E-02    1.4666371E-17
  1.9910000E-02    1.1545513E-17
  1.9944999E-02   -1.3564107E-17
  1.9980000E-02   -2.0694438E-17
  2.0014999E-02    8.1832697E-18
  2.0050000E-02    3.0012138E-17
  2.0085000E-02    2.6812712E-18
  2.0120000E-02   -3.7171730E-17
  2.0155000E-02   -1.9531385E-17
  2.0190001E-02    3.9028065E-17
  2.0225000E-02    4.1627133E-17
  2.0260001E-02   -3.1955185E-17
  2.0295000E-02   -6.6462698E-17
  2.0330001E-02    1.2499349E-17
  2.0365000E-02    8.9400582E-17
  2.0400001E-02    2.1645055E-17
  2.0435000E-02   -1.0364664E-16
  2.0470001E-02   -7.0410825E-17
  2.0505000E-02    1.0075855E-16
  2.0540001E-02    1.3006115E-16
  2.0575000E-02   -7.1847399E-17
  2.0609999E-02   -1.9211144E-16
  2.0645000E-02    9.5390336E-18
  2.0679999E-02    2.4285851E-16
  2.0715000E-02    8.9396850E-17
  2.0749999E-02   -2.6395400E-16
  2.0785000E-02   -2.2105812E-16
  2.0819999E-02    2.3442105E-16
  2.0855000E-02    3.7161927E-16
  2.0889999E-02   -1.3435627E-16
  2.0925000E-02   -5.1552680E-16
  2.0959999E-02   -4.9745123E-17
  2.0995000E-02    6.1562196E-16
  2.1029999E-02    3.1852518E-16
  2.1065000E-02   -6.2611564E-16
  2.1100000E-02   -6.5317723E-16
  2.1135001E-02    4.9909129E-16
  2.1170000E-02    1.0102592E-15
  2.1205001E-02   -1.9468666E-16
  2.1240000E-02   -1.3198383E-15
  2.1275001E-02   -3.0574970E-16
  2.1310000E-02    1.4889695E-15
  2.1345001E-02    9.8522013E-16
  2.1380000E-02   -1.4121951E-15
  2.1415001E-02   -1.7782101E-15
  2.1450000E-02    9.8981570E-16
  2.1485001E-02    2.5631035E-15
  2.1520000E-02   -1.5320513E-16
  2.1555001E-02   -3.1640564E-15
  2.1590000E-02   -1.1055786E-15
  2.1624999E-02    3.3660967E-15
  2.1660000E-02    2.7048267E-15
  2.1694999E-02   -2.9457779E-15
  2.1730000E-02   -4.4517883E-15
  2.1764999E-02    1.7170826E-15
  2.1800000E-02    6.0369910E-15
  2.1834999E-02    4.1134911E-16
  2.1870000E-02   -7.0522447E-15
  2.1904999E-02   -3.3758867E-15
  2.1940000E-02    7.0380997E-15
  2.1974999E-02    6.9067388E-15
  2.2010000E-02   -5.5622532E-15
  2.2045000E-02   -1.0501116E-14
  2.2080000E-02    2.3239336E-15
  2.2115000E-02    1.3436460E-14
  2.2150001E-02    2.7284492E-15
  2.2185000E-02   -1.4836721E-14
  2.2220001E-02   -9.2870768E-15
  2.2255000E-02    1.3797760E-14
  2.2290001E-02    1.6608959E-14
  2.2325000E-02   -9.5672837E-15
  2.2360001E-02   -2.3504094E-14
  2.2395000E-02    1.7609879E-15
  2.2430001E-02    2.8414213E-14
  2.2465000E-02    9.4182017E-15
  2.2500001E-02   -2.9598679E-14
  2.2535000E-02   -2.3003402E-14
  2.2569999E-02    2.5426919E-14
  2.2605000E-02    3.7182639E-14
  2.2639999E-02   -1.4753639E-14
  2.2675000E-02   -4.9364298E-14
  2.2709999E-02   -2.6729073E-15
  2.2745000E-02    5.6426929E-14
  2.2779999E-02    2.5843226E-14
  2.2815000E-02   -5.5165203E-14
  2.2849999E-02   -5.2250281E-14
  2.2885000E-02    4.2905834E-14
  2.2919999E-02    7.7877429E-14
  2.2955000E-02   -1.8224922E-14
  2.2990000E-02   -9.7487976E-14
  2.3025000E-02   -1.8347942E-14
  2.3060000E-02    1.0525637E-13
  2.3095001E-02    6.3785342E-14
  2.3130000E-02   -9.5724189E-14
  2.3165001E-02   -1.1233913E-13
  2.3200000E-02    6.4992201E-14
  2.3235001E-02    1.5578641E-13
  2.3270000E-02   -1.1983996E-14
  2.3305001E-02   -1.8424260E-13
  2.3340000E-02   -6.0447930E-14
  2.3375001E-02    1.8755659E-13
  2.3410000E-02    1.4484248E-13
  2.3445001E-02   -1.5719006E-13
  2.3480000E-02   -2.2914046E-13
  2.3514999E-02    8.8358425E-14
  2.3550000E-02    2.9759233E-13
  2.3584999E-02    1.7907035E-14
  2.3620000E-02   -3.3265448E-13
  2.3654999E-02   -1.5320265E-13
  2.3690000E-02    3.1779765E-13
  2.3724999E-02    3.0115415E-13
  2.3760000E-02   -2.4095176E-13
  2.3794999E-02   -4.3817364E-13
  2.3830000E-02    9.8100137E-14
  2.3864999E-02    5.3581575E-13
  2.3900000E-02    1.0362028E-13
  2.3934999E-02   -5.6474714E-13
  2.3970000E-02   -3.4405934E-13
  2.4005000E-02    5.0001545E-13
  2.4040001E-02    5.9014333E-13
  2.4075000E-02   -3.2698052E-13
  2.4110001E-02   -7.9844844E-13
  2.4145000E-02    4.6950830E-14
  2.4180001E-02    9.2046021E-13
  2.4215000E-02    3.1864249E-13
  2.4250001E-02   -9.1025961E-13
  2.4285000E-02   -7.2673361E-13
  2.4320001E-02    7.3382446E-13
  2.4355000E-02    1.1148107E-12
  2.4390001E-02   -3.7860418E-13
  2.4425000E-02   -1.4073748E-12
  2.4460001E-02   -1.3840011E-13
  2.4495000E-02    1.5266035E-12
  2.4529999E-02    7.6600434E-13
  2.4565000E-02   -1.4062714E-12
  2.4599999E-02   -1.4194838E-12
  2.4635000E-02    1.0071168E-12
  2.4669999E-02    1.9877368E-12
  2.4705000E-02   -3.3107089E-13
  2.4739999E-02   -2.3472912E-12
  2.4775000E-02   -5.6869467E-13
  2.4809999E-02    2.3822274E-12
  2.4845000E-02    1.5849229E-12
  2.4879999E-02   -2.0076224E-12
  2.4915000E-02   -2.5629722E-12
  2.4950000E-02    1.1929045E-12
  2.4985000E-02    3.3181487E-12
  2.5020000E-02    1.9445544E-14
  2.5055001E-02   -3.6629124E-12
  2.5090000E-02   -1.5045996E-12
  2.5125001E-02    3.4410294E-12
  2.5160000E-02    3.0594975E-12
  2.5195001E-02   -2.5637311E-12
  2.5230000E-02   -4.4227222E-12
  2.5265001E-02    1.0413558E-12
  2.5300000E-02    5.3099114E-12
  2.5335001E-02    9.9669264E-13
  2.5370000E-02   -5.4613154E-12
  2.5405001E-02   -3.3001106E-12
  2.5440000E-02    4.6949931E-12
  2.5474999E-02    5.5181588E-12
  2.5510000E-02   -2.9566985E-12
  2.5544999E-02   -7.2434177E-12
  2.5580000E-02    3.5601765E-13
  2.5614999E-02    8.0750589E-12
  2.5650000E-02    2.8207970E-12
  2.5684999E-02   -7.6935906E-12
  2.5720000E-02   -6.1285564E-12
  2.5754999E-02    5.9349665E-12
  2.5790000E-02    9.0139077E-12
  2.5824999E-02   -2.8498933E-12
  2.5860000E-02   -1.0895818E-11
  2.5895000E-02   -1.2657852E-12
  2.5930000E-02    1.1265932E-11
  2.5965000E-02    5.8806718E-12
  2.6000001E-02   -9.7933770E-12
  2.6035000E-02   -1.0282560E-11
  2.6070001E-02    6.4150720E-12
  2.6105000E-02    1.3675967E-11
  2.6140001E-02   -1.3918731E-12
  2.6175000E-02   -1.5311068E-11
  2.6210001E-02   -4.6852704E-12
  2.6245000E-02    1.4625239E-11
  2.6280001E-02    1.0948775E-11
  2.6315000E-02   -1.1372524E-11
  2.6350001E-02   -1.6366351E-11
  2.6385000E-02    5.7152516E-12
  2.6419999E-02    1.9899700E-11
  2.6455000E-02    1.7449802E-12
  2.6489999E-02   -2.0687316E-11
  2.6525000E-02   -1.0011243E-11
  2.6559999E-02    1.8220939E-11
  2.6595000E-02    1.7812659E-11
  2.6629999E-02   -1.2482273E-11
  2.6665000E-02   -2.3791058E-11
  2.6699999E-02    4.0095518E-12
  2.6735000E-02    2.6727200E-11
  2.6769999E-02    6.1270615E-12
  2.6805000E-02   -2.5770002E-11
  2.6839999E-02   -1.6448181E-11
  2.6875000E-02    2.0627075E-11
  2.6910000E-02    2.5274935E-11
  2.6945001E-02   -1.1677383E-11
  2.6980000E-02   -3.0997340E-11