 -4.8000002E-03    1.0000000E-24
 -4.7650002E-03    1.0000000E-24
 -4.7300002E-03    1.0000001E-24
 -4.6950001E-03    1.0000002E-24
 -4.6600001E-03    1.0000001E-24
 -4.6250001E-03    1.0000001E-24
 -4.5900000E-03    1.0000001E-24
 -4.5550000E-03    1.0000001E-24
 -4.5200000E-03    1.0000001E-24
 -4.4849999E-03    1.0000002E-24
 -4.4499999E-03    1.0000001E-24
 -4.4149999E-03    1.0000001E-24
 -4.3799998E-03    1.0000002E-24
 -4.3449998E-03    1.0000002E-24
 -4.3100002E-03    1.0000001E-24
 -4.2750002E-03    1.0000000E-24
 -4.2400002E-03    9.9999992E-25
 -4.2050001E-03    9.9999982E-25
 -4.1700001E-03    1.0000001E-24
 -4.1350001E-03    1.0000001E-24
 -4.1000000E-03    1.0000001E-24
 -4.0650000E-03    9.9999992E-25
 -4.0300000E-03    9.9999982E-25
 -3.9949999E-03    1.0000000E-24
 -3.9599999E-03    1.0000001E-24
 -3.9249999E-03    1.0000002E-24
 -3.8900001E-03    1.0000002E-24
 -3.8550000E-03    1.0000001E-24
 -3.8200000E-03    1.0000000E-24
 -3.7849999E-03    1.0000000E-24
 -3.7499999E-03    1.0000004E-24
 -3.7150001E-03    1.0000004E-24
 -3.6800001E-03    1.0000000E-24
 -3.6450000E-03    9.9999972E-25
 -3.6100000E-03    1.0000000E-24
 -3.5750000E-03    9.9999992E-25
 -3.5399999E-03    9.9999982E-25
 -3.5049999E-03    1.0000003E-24
 -3.4700001E-03    1.0000006E-24
 -3.4350001E-03    1.0000002E-24
 -3.4000000E-03    9.9999982E-25
 -3.3650000E-03    1.0000000E-24
 -3.3300000E-03    1.0000000E-24
 -3.2949999E-03    9.9999972E-25
 -3.2599999E-03    9.9999972E-25
 -3.2250001E-03    1.0000003E-24
 -3.1900001E-03    1.0000004E-24
 -3.1550000E-03    1.0000001E-24
 -3.1200000E-03    9.9999992E-25
 -3.0850000E-03    9.9999982E-25
 -3.0499999E-03    1.0000000E-24
 -3.0149999E-03    1.0000003E-24
 -2.9800001E-03    1.0000003E-24
 -2.9450001E-03    1.0000002E-24
 -2.9100000E-03    9.9999982E-25
 -2.8750000E-03    9.9999982E-25
 -2.8400000E-03    1.0000000E-24
 -2.8049999E-03    1.0000001E-24
 -2.7699999E-03    1.0000001E-24
 -2.7350001E-03    1.0000002E-24
 -2.7000001E-03    1.0000002E-24
 -2.6650000E-03    9.9999992E-25
 -2.6300000E-03    1.0000000E-24
 -2.5950000E-03    1.0000008E-24
 -2.5599999E-03    1.0000009E-24
 -2.5249999E-03    1.0000003E-24
 -2.4900001E-03    9.9999972E-25
 -2.4550001E-03    9.9999982E-25
 -2.4200000E-03    1.0000000E-24
 -2.3850000E-03    1.0000002E-24
 -2.3500000E-03    1.0000002E-24
 -2.3149999E-03    9.9999982E-25
 -2.2799999E-03    9.9999963E-25
 -2.2450001E-03    9.9999992E-25
 -2.2100001E-03    1.0000001E-24
 -2.1750000E-03    1.0000001E-24
 -2.1400000E-03    1.0000000E-24
 -2.1050000E-03    1.0000000E-24
 -2.0699999E-03    1.0000003E-24
 -2.0349999E-03    1.0000005E-24
 -2.0000001E-03    1.0000006E-24
 -1.9650001E-03    1.0000005E-24
 -1.9300000E-03    1.0000001E-24
 -1.8950000E-03    9.9999953E-25
 -1.8600000E-03    9.9999963E-25
 -1.8250000E-03    1.0000001E-24
 -1.7900000E-03    1.0000001E-24
 -1.7550000E-03    9.9999972E-25
 -1.7199999E-03    9.9999992E-25
 -1.6850000E-03    1.0000005E-24
 -1.6500000E-03    1.0000004E-24
 -1.6150000E-03    1.0000001E-24
 -1.5800000E-03    1.0000002E-24
 -1.5450000E-03    1.0000006E-24
 -1.5100000E-03    1.0000005E-24
 -1.4750001E-03    9.9999992E-25
 -1.4400000E-03    9.9999963E-25
 -1.4050000E-03    9.9999963E-25
 -1.3700000E-03    1.0000000E-24
 -1.3350000E-03    1.0000005E-24
 -1.3000000E-03    1.0000001E-24
 -1.2650000E-03    9.9999953E-25
 -1.2300001E-03    9.9999963E-25
 -1.1950000E-03    1.0000005E-24
 -1.1600000E-03    1.0000007E-24
 -1.1250000E-03    1.0000000E-24
 -1.0900000E-03    9.9999943E-25
 -1.0550000E-03    9.9999953E-25
 -1.0200000E-03    1.0000000E-24
 -9.8500005E-04    1.0000005E-24
 -9.5000002E-04    1.0000004E-24
 -9.1499998E-04    1.0000005E-24
 -8.8000001E-04    1.0000008E-24
 -8.4499997E-04    9.9999992E-25
 -8.1000000E-04    9.9999923E-25
 -7.7500002E-04    1.0000000E-24
 -7.3999999E-04    1.0000004E-24
 -7.0500001E-04    1.0000000E-24
 -6.6999998E-04    9.9999972E-25
 -6.3500000E-04    1.0000000E-24
 -6.0000003E-04    1.0000004E-24
 -5.6499999E-04    1.0000007E-24
 -5.3000002E-04    1.0000001E-24
 -4.9499999E-04    9.9999933E-25
 -4.6000001E-04    9.9999992E-25
 -4.2500001E-04    1.0000007E-24
 -3.9000000E-04    1.0000006E-24
 -3.5500000E-04    9.9999972E-25
 -3.1999999E-04    9.9999923E-25
 -2.8499999E-04    9.9999963E-25
 -2.5000001E-04    1.0000005E-24
 -2.1499999E-04    1.0000006E-24
 -1.8000000E-04    1.0000002E-24
 -1.4500000E-04    1.0000004E-24
 -1.1000000E-04    1.0000010E-24
 -7.5000004E-05    1.0000003E-24
 -3.9999999E-05    9.9999923E-25
 -4.9999999E-06    9.9999923E-25
  2.9999999E-05    1.0000002E-24
  6.5000000E-05    1.0000004E-24
  9.9999997E-05    9.9999992E-25
  1.3499999E-04    9.9999963E-25
  1.7000000E-04    9.9999972E-25
  2.0500000E-04    9.9999963E-25
  2.3999999E-04    1.0000001E-24
  2.7500000E-04    1.0000008E-24
  3.1000000E-04    1.0000000E-24
  3.4500001E-04    9.9999913E-25
  3.8000001E-04    9.9999963E-25
  4.1499999E-04    1.0000005E-24
  4.4999999E-04    1.0000010E-24
  4.8500000E-04    1.0000009E-24
  5.2000000E-04    1.0000003E-24
  5.5499998E-04    1.0000002E-24
  5.9000001E-04    1.0000005E-24
  6.2499999E-04    9.9999992E-25
  6.6000002E-04    9.9999903E-25
  6.9500000E-04    9.9999963E-25
  7.3000003E-04    1.0000002E-24
  7.6500000E-04    9.9999972E-25
  7.9999998E-04    9.9999943E-25
  8.3500001E-04    9.9999992E-25
  8.6999999E-04    1.0000008E-24
  9.0500002E-04    1.0000009E-24
  9.4000000E-04    9.9999992E-25
  9.7499997E-04    9.9999913E-25
  1.0100000E-03    9.9999953E-25
  1.0450000E-03    1.0000005E-24
  1.0800000E-03    1.0000013E-24
  1.1150000E-03    1.0000010E-24
  1.1500000E-03    1.0000002E-24
  1.1849999E-03    9.9999982E-25
  1.2200000E-03    9.9999963E-25
  1.2550000E-03    9.9999943E-25
  1.2900000E-03    9.9999933E-25
  1.3250000E-03    9.9999972E-25
  1.3600000E-03    1.0000010E-24
  1.3950000E-03    1.0000015E-24
  1.4299999E-03    9.9999982E-25
  1.4650000E-03    9.9999844E-25
  1.5000000E-03    9.9999933E-25
  1.5350000E-03    1.0000005E-24
  1.5700000E-03    1.0000002E-24
  1.6050000E-03    9.9999982E-25
  1.6400000E-03    1.0000005E-24
  1.6749999E-03    1.0000009E-24
  1.7100000E-03    1.0000002E-24
  1.7450000E-03    9.9999982E-25
  1.7800000E-03    1.0000000E-24
  1.8150000E-03    9.9999972E-25
  1.8500000E-03    9.9999943E-25
  1.8850000E-03    1.0000002E-24
  1.9200000E-03    1.0000004E-24
  1.9550000E-03    1.0000005E-24
  1.9900000E-03    1.0000012E-24
  2.0250001E-03    1.0000016E-24
  2.0600001E-03    1.0000004E-24
  2.0949999E-03    9.9999893E-25
  2.1299999E-03    9.9999854E-25
  2.1650000E-03    9.9999953E-25
  2.2000000E-03    1.0000011E-24
  2.2350000E-03    1.0000007E-24
  2.2700001E-03    9.9999972E-25
  2.3050001E-03    1.0000009E-24
  2.3399999E-03    1.0000015E-24
  2.3749999E-03    9.9999913E-25
  2.4100000E-03    9.9999746E-25
  2.4450000E-03    9.9999913E-25
  2.4800000E-03    1.0000013E-24
  2.5150001E-03    1.0000013E-24
  2.5500001E-03    1.0000003E-24
  2.5849999E-03    1.0000002E-24
  2.6199999E-03    1.0000003E-24
  2.6550000E-03    9.9999972E-25
  2.6900000E-03    9.9999943E-25
  2.7250000E-03    1.0000004E-24
  2.7600001E-03    1.0000009E-24
  2.7950001E-03    9.9999982E-25
  2.8299999E-03    9.9999884E-25
  2.8649999E-03    9.9999982E-25
  2.9000000E-03    1.0000021E-24
  2.9350000E-03    1.0000028E-24
  2.9700000E-03    1.0000010E-24
  3.0050001E-03    9.9999854E-25
  3.0400001E-03    9.9999775E-25
  3.0749999E-03    9.9999844E-25
  3.1099999E-03    9.9999992E-25
  3.1450000E-03    1.0000012E-24
  3.1800000E-03    1.0000012E-24
  3.2150000E-03    9.9999972E-25
  3.2500001E-03    9.9999923E-25
  3.2850001E-03    1.0000005E-24
  3.3199999E-03    1.0000013E-24
  3.3549999E-03    1.0000003E-24
  3.3900000E-03    9.9999943E-25
  3.4250000E-03    9.9999943E-25
  3.4600000E-03    9.9999982E-25
  3.4950001E-03    1.0000015E-24
  3.5300001E-03    1.0000027E-24
  3.5649999E-03    1.0000010E-24
  3.5999999E-03    9.9999844E-25
  3.6350000E-03    9.9999755E-25
  3.6700000E-03    9.9999824E-25
  3.7050000E-03    1.0000000E-24
  3.7400001E-03    1.0000015E-24
  3.7750001E-03    1.0000013E-24
  3.8099999E-03    9.9999992E-25
  3.8449999E-03    9.9999963E-25
  3.8800000E-03    9.9999992E-25
  3.9149998E-03    9.9999963E-25
  3.9499998E-03    9.9999943E-25
  3.9849998E-03    1.0000002E-24
  4.0199999E-03    1.0000009E-24
  4.0549999E-03    1.0000010E-24
  4.0899999E-03    1.0000005E-24
  4.1250000E-03    9.9999963E-25
  4.1600000E-03    9.9999992E-25
  4.1950000E-03    1.0000004E-24
  4.2300001E-03    9.9999953E-25
  4.2650001E-03    9.9999893E-25
  4.3000001E-03    9.9999992E-25
  4.3350002E-03    1.0000006E-24
  4.3700002E-03    1.0000010E-24
  4.4049998E-03    1.0000016E-24
  4.4399998E-03    1.0000004E-24
  4.4749998E-03    9.9999824E-25
  4.5099999E-03    9.9999854E-25
  4.5449999E-03    1.0000004E-24
  4.5799999E-03    1.0000010E-24
  4.6150000E-03    1.0000003E-24
  4.6500000E-03    9.9999933E-25
  4.6850001E-03    9.9999913E-25
  4.7200001E-03    1.0000005E-24
  4.7550001E-03    1.0000017E-24
  4.7900002E-03    1.0000012E-24
  4.8250002E-03    1.0000001E-24
  4.8600002E-03    9.9999903E-25
  4.8949998E-03    9.9999834E-25
  4.9299998E-03    9.9999943E-25
  4.9649999E-03    1.0000009E-24
  4.9999999E-03    1.0000013E-24
  5.0349999E-03    1.0000006E-24
  5.0700000E-03    9.9999982E-25
  5.1050000E-03    9.9999933E-25
  5.1400000E-03    9.9999963E-25
  5.1750001E-03    1.0000004E-24
  5.2100001E-03    1.0000009E-24
  5.2450001E-03    1.0000003E-24
  5.2800002E-03    9.9999913E-25
  5.3150002E-03    9.9999982E-25
  5.3500002E-03    1.0000009E-24
  5.3849998E-03    1.0000005E-24
  5.4199998E-03    9.9999992E-25
  5.4549999E-03    9.9999982E-25
  5.4899999E-03    9.9999933E-25
  5.5249999E-03    9.9999943E-25
  5.5600000E-03    1.0000005E-24
  5.5950000E-03    1.0000012E-24
  5.6300000E-03    1.0000007E-24
  5.6650001E-03    9.9999972E-25
  5.7000001E-03    9.9999854E-25
  5.7350001E-03    9.9999864E-25
  5.7700002E-03    9.9999992E-25
  5.8050002E-03    1.0000010E-24
  5.8400002E-03    1.0000014E-24
  5.8749998E-03    1.0000010E-24
  5.9099998E-03    9.9999943E-25
  5.9449999E-03    9.9999854E-25
  5.9799999E-03    9.9999943E-25
  6.0149999E-03    1.0000003E-24
  6.0500000E-03    1.0000004E-24
  6.0850000E-03    1.0000002E-24
  6.1200000E-03    1.0000005E-24
  6.1550001E-03    1.0000010E-24
  6.1900001E-03    1.0000011E-24
  6.2250001E-03    1.0000000E-24
  6.2600002E-03    9.9999893E-25
  6.2950002E-03    9.9999903E-25
  6.3299998E-03    1.0000003E-24
  6.3649998E-03    1.0000008E-24
  6.3999998E-03    1.0000001E-24
  6.4349999E-03    9.9999982E-25
  6.4699999E-03    1.0000002E-24
  6.5049999E-03    9.9999972E-25
  6.5400000E-03    9.9999884E-25
  6.5750000E-03    9.9999923E-25
  6.6100000E-03    1.0000005E-24
  6.6450001E-03    1.0000017E-24
  6.6800001E-03    1.0000022E-24
  6.7150001E-03    1.0000003E-24
  6.7500002E-03    9.9999795E-25
  6.7850002E-03    9.9999805E-25
  6.8199998E-03    9.9999972E-25
  6.8549998E-03    1.0000014E-24
  6.8899998E-03    1.0000021E-24
  6.9249999E-03    1.0000014E-24
  6.9599999E-03    9.9999992E-25
  6.9949999E-03    9.9999933E-25
  7.0300000E-03    9.9999933E-25
  7.0650000E-03    9.9999953E-25
  7.1000000E-03    1.0000002E-24
  7.1350001E-03    1.0000002E-24
  7.1700001E-03    9.9999933E-25
  7.2050001E-03    9.9999913E-25
  7.2400002E-03    1.0000009E-24
  7.2750002E-03    1.0000028E-24
  7.3099998E-03    1.0000012E-24
  7.3449998E-03    9.9999815E-25
  7.3799998E-03    9.9999844E-25
  7.4149999E-03    1.0000000E-24
  7.4499999E-03    9.9999943E-25
  7.4850000E-03    9.9999963E-25
  7.5200000E-03    1.0000009E-24
  7.5550000E-03    1.0000003E-24
  7.5900001E-03    9.9999913E-25
  7.6250001E-03    9.9999933E-25
  7.6600001E-03    1.0000001E-24
  7.6950002E-03    1.0000013E-24
  7.7300002E-03    1.0000015E-24
  7.7650002E-03    1.0000006E-24
  7.7999998E-03    1.0000004E-24
  7.8349998E-03    1.0000002E-24
  7.8699999E-03    9.9999864E-25
  7.9049999E-03    9.9999874E-25
  7.9399999E-03    1.0000005E-24
  7.9750000E-03    1.0000012E-24
  8.0100000E-03    1.0000008E-24
  8.0450000E-03    1.0000000E-24
  8.0800001E-03    9.9999933E-25
  8.1150001E-03    9.9999943E-25
  8.1500001E-03    9.9999953E-25
  8.1850002E-03    9.9999963E-25
  8.2200002E-03    1.0000004E-24
  8.2550002E-03    1.0000009E-24
  8.2900003E-03    1.0000002E-24
  8.3250003E-03    9.9999982E-25
  8.3600003E-03    9.9999972E-25
  8.3950004E-03    1.0000001E-24
  8.4300004E-03    1.0000007E-24
  8.4650004E-03    9.9999972E-25
  8.5000005E-03    9.9999874E-25
  8.5349996E-03    1.0000000E-24
  8.5699996E-03    1.0000013E-24
  8.6049996E-03    1.0000000E-24
  8.6399997E-03    9.9999844E-25
  8.6749997E-03    9.9999913E-25
  8.7099997E-03    1.0000028E-24
  8.7449998E-03    1.0000035E-24
  8.7799998E-03    9.9999608E-25
  8.8149998E-03    9.9999312E-25
  8.8499999E-03    1.0000055E-24
  8.8849999E-03    1.0000138E-24
  8.9199999E-03    9.9999746E-25
  8.9550000E-03    9.9997990E-25
  8.9900000E-03    9.9999755E-25
  9.0250000E-03    1.0000282E-24
  9.0600001E-03    1.0000100E-24
  9.0950001E-03    9.9995782E-25
  9.1300001E-03    9.9997152E-25
  9.1650002E-03    1.0000575E-24
  9.2000002E-03    1.0000629E-24
  9.2350002E-03    9.9993366E-25
  9.2700003E-03    9.9988465E-25
  9.3050003E-03    1.0000639E-24
  9.3400003E-03    1.0001943E-24
  9.3750004E-03    9.9996511E-25
  9.4100004E-03    9.9969641E-25
  9.4450004E-03    9.9995466E-25
  9.4799995E-03    1.0004384E-24
  9.5149996E-03    1.0002038E-24
  9.5499996E-03    9.9940709E-25
  9.5849996E-03    9.9950422E-25
  9.6199997E-03    1.0007246E-24
  9.6549997E-03    1.0009728E-24
  9.6899997E-03    9.9923729E-25
  9.7249998E-03    9.9830614E-25
  9.7599998E-03    1.0005747E-24
  9.7949998E-03    1.0026966E-24
  9.8299999E-03    1.0000422E-24
  9.8649999E-03    9.9602623E-25
  9.8999999E-03    9.9861281E-25
  9.9350000E-03    1.0053959E-24
  9.9700000E-03    1.0038363E-24
  1.0005000E-02    9.9331689E-25
  1.0040000E-02    9.9205520E-25
  1.0075000E-02    1.0070879E-24
  1.0110000E-02    1.0140820E-24
  1.0145000E-02    9.9449456E-25
  1.0180000E-02    9.7755821E-25
  1.0215000E-02    1.0003383E-24
  1.0250000E-02    1.0329157E-24
  1.0285000E-02    1.0109329E-24
  1.0320000E-02    9.5579610E-25
  1.0355000E-02    9.6860967E-25
  1.0390000E-02    1.0534420E-24
  1.0425000E-02    1.0646500E-24
  1.0460000E-02    9.4509629E-25
  1.0495000E-02    8.8638551E-25
  1.0530000E-02    1.0390554E-24
  1.0565000E-02    1.1786757E-24
  1.0600000E-02    1.0074851E-24
  1.0635000E-02    7.4431294E-25
  1.0670000E-02    8.9750362E-25
  1.0705000E-02    1.3327485E-24
  1.0740000E-02    1.2679626E-24
  1.0775000E-02    6.1615061E-25
  1.0810000E-02    4.7418651E-25
  1.0845000E-02    1.3629146E-24
  1.0880000E-02    1.8886352E-24
  1.0915000E-02    7.9848816E-25
  1.0950000E-02   -3.5272362E-25
  1.0985000E-02    7.9621560E-25
  1.1020000E-02    2.8669805E-24
  1.1055000E-02    1.9697691E-24
  1.1090000E-02   -1.3283781E-24
  1.1125000E-02   -1.2426859E-24
  1.1160000E-02    3.5122000E-24
  1.1195000E-02    5.1232331E-24
  1.1230000E-02   -1.0850800E-24
  1.1265000E-02   -5.6494443E-24
  1.1300000E-02    1.5447113E-24
  1.1335000E-02    1.0676348E-23
  1.1370000E-02    3.7514186E-24
  1.1405000E-02   -1.1773172E-23
  1.1440000E-02   -7.5751812E-24
  1.1475000E-02    1.6013999E-23
  1.1510000E-02    1.8652080E-23
  1.1545000E-02   -1.3835685E-23
  1.1580000E-02   -2.9396681E-23
  1.1615000E-02    1.0915158E-23
  1.1650000E-02    4.7565176E-23
  1.1685000E-02    3.9617952E-24
  1.1720000E-02   -6.3572615E-23
  1.1755000E-02   -2.6651823E-23
  1.1790000E-02    8.1798906E-23
  1.1825000E-02    6.9251183E-23
  1.1860000E-02   -8.7562980E-23
  1.1895000E-02   -1.2674079E-22
  1.1930000E-02    7.8717375E-23
  1.1965000E-02    2.0785566E-22
  1.2000000E-02   -3.2484626E-23
  1.2035000E-02   -2.9950683E-22
  1.2070000E-02   -6.0963732E-23
  1.2105000E-02    3.9671588E-22
  1.2140000E-02    2.2992279E-22
  1.2175000E-02   -4.6578710E-22
  1.2210000E-02   -4.8496695E-22
  1.2245000E-02    4.7186186E-22
  1.2280000E-02    8.4279264E-22
  1.2315000E-02   -3.4559204E-22
  1.2350000E-02   -1.2843432E-21
  1.2385000E-02    1.5733566E-23
  1.2420000E-02    1.7737749E-21
  1.2455000E-02    6.1797566E-22
  1.2490000E-02   -2.2086447E-21
  1.2525000E-02   -1.6371037E-21
  1.2560000E-02    2.4364443E-21
  1.2595000E-02    3.1123955E-21
  1.2630000E-02   -2.2063827E-21
  1.2665000E-02   -5.0289285E-21
  1.2700000E-02    1.2022234E-21
  1.2735000E-02    7.2648228E-21
  1.2770000E-02    9.7039757E-22
  1.2805000E-02   -9.4952749E-21
  1.2840000E-02   -4.7068390E-21
  1.2875000E-02    1.1150627E-20
  1.2910000E-02    1.0338490E-20
  1.2945000E-02   -1.1333005E-20
  1.2980000E-02   -1.7957758E-20
  1.3015000E-02    8.8264970E-21
  1.3050000E-02    2.7257294E-20
  1.3085000E-02   -2.1060047E-21
  1.3120000E-02   -3.7238162E-20
  1.3155000E-02   -1.0455214E-20
  1.3190000E-02    4.6000037E-20
  1.3225000E-02    3.0332125E-20
  1.3260000E-02   -5.0454741E-20
  1.3295000E-02   -5.8307231E-20
  1.3330000E-02    4.6257281E-20
  1.3365000E-02    9.3822237E-20
  1.3400000E-02   -2.7881589E-20
  1.3435000E-02   -1.3406874E-19
  1.3470000E-02   -1.0885973E-20
  1.3505000E-02    1.7303027E-19
  1.3540000E-02    7.5882163E-20
  1.3575000E-02   -2.0072905E-19
  1.3610000E-02   -1.7110157E-19
  1.3645000E-02    2.0266642E-19
  1.3680000E-02    2.9641094E-19
  1.3715000E-02   -1.5996779E-19
  1.3750000E-02   -4.4454108E-19
  1.3785000E-02    5.0825431E-20
  1.3820000E-02    5.9793635E-19
  1.3855000E-02    1.4643020E-19
  1.3890000E-02   -7.2593588E-19
  1.3925000E-02   -4.4845369E-19
  1.3960000E-02    7.8270058E-19
  1.3995000E-02    8.5973917E-19
  1.4030000E-02   -7.0750319E-19
  1.4065000E-02   -1.3634344E-18
  1.4100000E-02    4.2853087E-19
  1.4135000E-02    1.9114351E-18
  1.4170000E-02    1.2860163E-19
  1.4205000E-02   -2.4135786E-18
  1.4240000E-02   -1.0245993E-18
  1.4275000E-02    2.7332124E-18
  1.4310000E-02    2.2874321E-18
  1.4345000E-02   -2.6843767E-18
  1.4380000E-02   -3.8820492E-18
  1.4415000E-02    2.0445378E-18
  1.4450000E-02    5.6819107E-18
  1.4485000E-02   -5.7782898E-19
  1.4520000E-02   -7.4370593E-18
  1.4555000E-02   -1.9201708E-18
  1.4590000E-02    8.7558416E-18
  1.4625000E-02    5.5632057E-18
  1.4660000E-02   -9.0989619E-18
  1.4695000E-02   -1.0288371E-17
  1.4730000E-02    7.8142669E-18
  1.4765000E-02    1.5775506E-17
  1.4800000E-02   -4.2010138E-18
  1.4835000E-02   -2.1360455E-17
  1.4870000E-02   -2.3727283E-18
  1.4905000E-02    2.5966520E-17
  1.4940000E-02    1.2287662E-17
  1.4975000E-02   -2.8110390E-17
  1.5010000E-02   -2.5461281E-17
  1.5045000E-02    2.5968318E-17
  1.5080000E-02    4.1089145E-17
  1.5115000E-02   -1.7590131E-17
  1.5150000E-02   -5.7459334E-17
  1.5185000E-02    1.1857091E-18
  1.5220000E-02    7.1749540E-17
  1.5255000E-02    2.4376574E-17
  1.5290000E-02   -8.0051482E-17
  1.5325000E-02   -5.9013758E-17
  1.5360000E-02    7.7566698E-17
  1.5395000E-02    1.0078932E-16
  1.5430000E-02   -5.9125189E-17
  1.5465000E-02   -1.4533779E-16
  1.5500000E-02    2.0071495E-17
  1.5535000E-02    1.8554768E-16
  1.5570000E-02    4.2568736E-17
  1.5605000E-02   -2.1161697E-16
  1.5640000E-02   -1.2872376E-16
  1.5675001E-02    2.1152983E-16
  1.5710000E-02    2.3361897E-16
  1.5745001E-02   -1.7259161E-16
  1.5780000E-02   -3.4661202E-16
  1.5814999E-02    8.3420761E-17
  1.5850000E-02    4.5036355E-16
  1.5884999E-02    6.2942502E-17
  1.5920000E-02   -5.2130479E-16
  1.5954999E-02   -2.6589635E-16
  1.5990000E-02    5.3123598E-16
  1.6024999E-02    5.1377975E-16
  1.6060000E-02   -4.5072010E-16
  1.6094999E-02   -7.8106094E-16
  1.6130000E-02    2.5446995E-16
  1.6164999E-02    1.0274493E-15
  1.6200000E-02    7.2177788E-17
  1.6235000E-02   -1.1989357E-15
  1.6270000E-02   -5.2534640E-16
  1.6305000E-02    1.2329674E-15
  1.6340001E-02    1.0761985E-15
  1.6375000E-02   -1.0664231E-15
  1.6410001E-02   -1.6658593E-15
  1.6445000E-02    6.4736653E-16
  1.6480001E-02    2.2037070E-15
  1.6515000E-02    4.9280559E-17
  1.6550001E-02   -2.5734394E-15
  1.6585000E-02   -1.0072074E-15
  1.6620001E-02    2.6449245E-15
  1.6655000E-02    2.1562100E-15
  1.6690001E-02   -2.2930342E-15
  1.6725000E-02   -3.3643674E-15
  1.6759999E-02    1.4233430E-15
  1.6795000E-02    4.4393547E-15
  1.6829999E-02   -2.9249965E-18
  1.6865000E-02   -5.1442916E-15
  1.6899999E-02   -1.9121578E-15
  1.6935000E-02    5.2251184E-15
  1.6969999E-02    4.1526404E-15
  1.7005000E-02   -4.4582885E-15
  1.7039999E-02   -6.4363429E-15
  1.7075000E-02    2.6965340E-15
  1.7109999E-02    8.3740989E-15
  1.7145000E-02    7.0007286E-17
  1.7180000E-02   -9.5169141E-15
  1.7215000E-02   -3.6726959E-15
  1.7250000E-02    9.4144443E-15
  1.7285001E-02    7.7309315E-15
  1.7320000E-02   -7.7072460E-15
  1.7355001E-02   -1.1661563E-14
  1.7390000E-02    4.2247687E-15
  1.7425001E-02    1.4726818E-14
  1.7460000E-02    9.2071560E-16
  1.7495001E-02   -1.6135051E-14
  1.7530000E-02   -7.2764492E-15
  1.7565001E-02    1.5164402E-14
  1.7600000E-02    1.4017431E-14
  1.7635001E-02   -1.1346676E-14
  1.7670000E-02   -2.0011934E-14
  1.7704999E-02    4.6254758E-15
  1.7740000E-02    2.3948503E-14
  1.7774999E-02    4.5034967E-15
  1.7810000E-02   -2.4550039E-14
  1.7844999E-02   -1.4935618E-14
  1.7880000E-02    2.0831491E-14
  1.7914999E-02    2.4987792E-14
  1.7950000E-02   -1.2401347E-14
  1.7984999E-02   -3.2575041E-14
  1.8020000E-02   -2.7756722E-16
  1.8054999E-02    3.5528692E-14
  1.8090000E-02    1.5733029E-14
  1.8124999E-02   -3.2021264E-14
  1.8160000E-02   -3.1494216E-14
  1.8195000E-02    2.1041682E-14
  1.8230001E-02    4.4285295E-14
  1.8265000E-02   -2.8829109E-15
  1.8300001E-02   -5.0495734E-14
  1.8335000E-02   -2.0540566E-14
  1.8370001E-02    4.6815375E-14
  1.8405000E-02    4.5560804E-14
  1.8440001E-02   -3.1068725E-14
  1.8475000E-02   -6.7002502E-14
  1.8510001E-02    3.0306555E-15
  1.8545000E-02    7.8808277E-14
  1.8580001E-02    3.4888406E-14
  1.8615000E-02   -7.5061776E-14
  1.8650001E-02   -7.7344544E-14
  1.8685000E-02    5.1214966E-14
  1.8719999E-02    1.1611447E-13
  1.8755000E-02   -5.6358303E-15
  1.8789999E-02   -1.4101105E-13
  1.8825000E-02   -5.9171357E-14
  1.8859999E-02    1.4127078E-13
  1.8895000E-02    1.3561007E-13
  1.8929999E-02   -1.0771126E-13
  1.8965000E-02   -2.1092912E-13
  1.8999999E-02    3.5146453E-14
  1.9035000E-02    2.6809739E-13
  1.9069999E-02    7.5129288E-14
  1.9105000E-02   -2.8793298E-13
  1.9140000E-02   -2.1345987E-13
  1.9175000E-02    2.5226720E-13
  1.9210000E-02    3.6089811E-13
  1.9245001E-02   -1.4811610E-13
  1.9280000E-02   -4.9003602E-13
  1.9315001E-02   -2.7992865E-14
  1.9350000E-02    5.6768197E-13
  1.9385001E-02    2.6606134E-13
  1.9420000E-02   -5.5972170E-13
  1.9455001E-02   -5.4022542E-13
  1.9490000E-02    4.3762571E-13
  1.9525001E-02    8.0863853E-13
  1.9560000E-02   -1.8614595E-13
  1.9595001E-02   -1.0167878E-12
  1.9630000E-02   -1.8937586E-13
  1.9664999E-02    1.1043490E-12
  1.9700000E-02    6.5754173E-13
  1.9734999E-02   -1.0153895E-12
  1.9770000E-02   -1.1589871E-12
  1.9804999E-02    7.1089722E-13
  1.9840000E-02    1.6095890E-12
  1.9874999E-02   -1.8173428E-13
  1.9910000E-02   -1.9097579E-12
  1.9944999E-02   -5.4053658E-13
  1.9980000E-02    1.9599346E-12
  2.0014999E-02    1.3783596E-12
  2.0050000E-02   -1.6801657E-12
  2.0085000E-02   -2.2104649E-12
  2.0120000E-02    1.0315819E-12
  2.0155000E-02    2.8840259E-12
  2.0190001E-02   -3.5233088E-14
  2.0225000E-02   -3.2367128E-12
  2.0260001E-02   -1.2164705E-12
  2.0295000E-02    3.1265825E-12
  2.0330001E-02    2.5601376E-12
  2.0365000E-02   -2.4655180E-12
  2.0400001E-02   -3.7768586E-12
  2.0435000E-02    1.2496997E-12
  2.0470001E-02    4.6233139E-12
  2.0505000E-02    4.2074168E-13
  2.0540001E-02   -4.8748748E-12
  2.0575000E-02   -2.3389812E-12
  2.0609999E-02    4.3750997E-12
  2.0645000E-02    4.2114302E-12
  2.0679999E-02   -3.0809682E-12
  2.0715000E-02   -5.7001665E-12
  2.0749999E-02    1.0934253E-12
  2.0785000E-02    6.4839393E-12
  2.0819999E-02    1.3375811E-12
  2.0855000E-02   -6.3270045E-12
  2.0889999E-02   -3.8394114E-12
  2.0925000E-02    5.1422625E-12
  2.0959999E-02    5.9752476E-12
  2.0995000E-02   -3.0320414E-12
  2.1029999E-02   -7.3264780E-12
  2.1065000E-02    2.9370218E-13
  2.1100000E-02    7.5848772E-12
  2.1135001E-02    2.6185085E-12
  2.1170000E-02   -6.6335392E-12
  2.1205001E-02   -5.1731475E-12
  2.1240000E-02    4.5958437E-12
  2.1275001E-02    6.8710415E-12
  2.1310000E-02   -1.8347266E-12
  2.1345001E-02   -7.3621474E-12
  2.1380000E-02   -1.1049263E-12
  2.1415001E-02    6.5425144E-12
  2.1450000E-02    3.6057247E-12
  2.1485001E-02   -4.6035927E-12
  2.1520000E-02   -5.1184751E-12
  2.1555001E-02    2.0155245E-12
  2.1590000E-02    5.3041634E-12
  2.1624999E-02    5.6148142E-13
  2.1660000E-02   -4.1410170E-12
  2.1694999E-02   -2.4253672E-12
  2.1730000E-02    1.9634815E-12
  2.1764999E-02    3.0085604E-12
  2.1800000E-02    5.8406275E-13
  2.1834999E-02   -2.0425601E-12
  2.1870000E-02   -2.6796560E-12
  2.1904999E-02   -3.3436017E-13
  2.1940000E-02    3.5176417E-12
  2.1974999E-02    3.5600132E-12
  2.2010000E-02   -2.5225902E-12
  2.2045000E-02   -6.7371104E-12
  2.2080000E-02   -4.6925848E-13
  2.2115000E-02    8.8169671E-12
  2.2150001E-02    5.1099407E-12
  2.2185000E-02   -8.8419116E-12
  2.2220001E-02   -1.0553908E-11
  2.2255000E-02    6.1920716E-12
  2.2290001E-02    1.5592720E-11
  2.2325000E-02   -7.7758183E-13
  2.2360001E-02   -1.8887905E-11
  2.2395000E-02   -6.8739719E-12
  2.2430001E-02    1.9252679E-11
  2.2465000E-02    1.5660303E-11
  2.2500001E-02   -1.5920893E-11
  2.2535000E-02   -2.4072725E-11
  2.2569999E-02    8.7432544E-12
  2.2605000E-02    3.0455707E-11
  2.2639999E-02    1.7314620E-12
  2.2675000E-02   -3.3303155E-11
  2.2709999E-02   -1.4304970E-11
  2.2745000E-02    3.1531364E-11
  2.2779999E-02    2.7292212E-11
  2.2815000E-02   -2.4680404E-11
  2.2849999E-02   -3.8762878E-11
  2.2885000E-02    1.3013417E-11
  2.2919999E-02    4.6811926E-11
  2.2955000E-02    2.4866437E-12
  2.2990000E-02   -4.9819749E-11
  2.3025000E-02   -2.0210422E-11
  2.3060000E-02    4.6670674E-11
  2.3095001E-02    3.8078447E-11
  2.3130000E-02   -3.6921566E-11
  2.3165001E-02   -5.3743003E-11
  2.3200000E-02    2.0917709E-11
  2.3235001E-02    6.4824923E-11
  2.3270000E-02    1.4440245E-13
  2.3305001E-02   -6.9186636E-11
  2.3340000E-02   -2.4220469E-11
  2.3375001E-02    6.5241909E-11
  2.3410000E-02    4.8519314E-11
  2.3445001E-02   -5.2282088E-11
  2.3480000E-02   -6.9734322E-11
  2.3514999E-02    3.0774265E-11
  2.3550000E-02    8.4431531E-11
  2.3584999E-02   -2.5540718E-12
  2.3620000E-02   -8.9583077E-11
  2.3654999E-02   -2.9179076E-11
  2.3690000E-02    8.3180893E-11
  2.3724999E-02    6.0140899E-11
  2.3760000E-02   -6.4811177E-11
  2.3794999E-02   -8.5543211E-11
  2.3830000E-02    3.6030540E-11
  2.3864999E-02    1.0092049E-10
  2.3900000E-02   -3.9266661E-13
  2.3934999E-02   -1.0305431E-10
  2.3970000E-02   -3.6963658E-11
  2.4005000E-02    9.0786052E-11
  2.4040001E-02    7.0156894E-11
  2.4075000E-02   -6.5482786E-11
  2.4110001E-02   -9.3693012E-11
  2.4145000E-02    3.0981755E-11
  2.4180001E-02    1.0363942E-10
  2.4215000E-02    7.0487683E-12
  2.4250001E-02   -9.8542050E-11
  2.4285000E-02   -4.2235500E-11
  2.4320001E-02    7.9814808E-11
  2.4355000E-02    6.8858329E-11
  2.4390001E-02   -5.1458914E-11
  2.4425000E-02   -8.3100339E-11
  2.4460001E-02    1.9144606E-11
  2.4495000E-02    8.3850392E-11
  2.4529999E-02    1.1125089E-11
  2.4565000E-02   -7.2827737E-11
  2.4599999E-02   -3.4419433E-11
  2.4635000E-02    5.3977427E-11
  2.4669999E-02    4.7959851E-11
  2.4705000E-02   -3.2306619E-11
  2.4739999E-02   -5.1568753E-11
  2.4775000E-02    1.2507707E-11
  2.4809999E-02    4.7374663E-11
  2.4845000E-02    2.2223827E-12
  2.4879999E-02   -3.8891251E-11
  2.4915000E-02   -1.0827423E-11
  2.4950000E-02    2.9769853E-11
  2.4985000E-02    1.4321377E-11
  2.5020000E-02   -2.2635321E-11
  2.5055001E-02   -1.5059147E-11
  2.5090000E-02    1.8380993E-11
  2.5125001E-02    1.5618343E-11
  2.5160000E-02   -1.6154680E-11
  2.5195001E-02   -1.7722060E-11
  2.5230000E-02    1.3978234E-11
  2.5265001E-02    2.1555422E-11
  2.5300000E-02   -9.7766699E-12
  2.5335001E-02   -2.5732383E-11
  2.5370000E-02    2.4036537E-12
  2.5405001E-02    2.7876845E-11
  2.5440000E-02    7.6641454E-12
  2.5474999E-02   -2.5672504E-11
  2.5510000E-02   -1.8309593E-11
  2.5544999E-02    1.7908773E-11
  2.5580000E-02    2.6371712E-11
  2.5614999E-02   -5.2176935E-12
  2.5650000E-02   -2.8746453E-11
  2.5684999E-02   -9.8931115E-12
  2.5720000E-02    2.3456240E-11
  2.5754999E-02    2.3547912E-11
  2.5790000E-02   -1.0537640E-11
  2.5824999E-02   -3.1619710E-11
  2.5860000E-02   -7.7862274E-12
  2.5895000E-02    3.0841236E-11
  2.5930000E-02    2.7398271E-11
  2.5965000E-02   -1.9942400E-11
  2.6000001E-02   -4.3401716E-11
  2.6035000E-02   -4.4992713E-14
  2.6070001E-02    5.1123925E-11
  2.6105000E-02    2.5733984E-11
  2.6140001E-02   -4.7399168E-11
  2.6175000E-02   -5.2268231E-11
  2.6210001E-02    3.0995262E-11
  2.6245000E-02    7.3873102E-11
  2.6280001E-02   -3.3639289E-12
  2.6315000E-02   -8.5344502E-11
  2.6350001E-02   -3.1925140E-11
  2.6385000E-02    8.2542612E-11
  2.6419999E-02    6.9127516E-11
  2.6455000E-02   -6.3806377E-11
  2.6489999E-02   -1.0183887E-10
  2.6525000E-02    2.9584762E-11
  2.6559999E-02    1.2292461E-10
  2.6595000E-02    1.6222846E-11
  2.6629999E-02   -1.2672334E-10
  2.6665000E-02   -6.7426273E-11
  2.6699999E-02    1.0918271E-10
  2.6735000E-02    1.1483421E-10
  2.6769999E-02   -7.0721269E-11
  2.6805000E-02   -1.4949175E-10
  2.6839999E-02    1.4866388E-11
  2.6875000E-02    1.6225089E-10
  2.6910000E-02    4.9347318E-11
  2.6945001E-02   -1.4835712E-10
  2.6980000E-02   -1.1095047E-10