 -4.8000002E-03    1.0000000E-24
 -4.7650002E-03    1.0000002E-24
 -4.7300002E-03    1.0000001E-24
 -4.6950001E-03    1.0000000E-24
 -4.6600001E-03    1.0000003E-24
 -4.6250001E-03    1.0000001E-24
 -4.5900000E-03    9.9999992E-25
 -4.5550000E-03    1.0000002E-24
 -4.5200000E-03    1.0000001E-24
 -4.4849999E-03    9.9999963E-25
 -4.4499999E-03    1.0000000E-24
 -4.4149999E-03    1.0000006E-24
 -4.3799998E-03    1.0000003E-24
 -4.3449998E-03    1.0000000E-24
 -4.3100002E-03    1.0000000E-24
 -4.2750002E-03    1.0000000E-24
 -4.2400002E-03    9.9999992E-25
 -4.2050001E-03    1.0000000E-24
 -4.1700001E-03    1.0000001E-24
 -4.1350001E-03    1.0000004E-24
 -4.1000000E-03    1.0000004E-24
 -4.0650000E-03    1.0000000E-24
 -4.0300000E-03    9.9999953E-25
 -3.9949999E-03    9.9999972E-25
 -3.9599999E-03    1.0000001E-24
 -3.9249999E-03    1.0000000E-24
 -3.8900001E-03    9.9999992E-25
 -3.8550000E-03    1.0000000E-24
 -3.8200000E-03    1.0000003E-24
 -3.7849999E-03    1.0000005E-24
 -3.7499999E-03    1.0000001E-24
 -3.7150001E-03    9.9999972E-25
 -3.6800001E-03    9.9999982E-25
 -3.6450000E-03    1.0000003E-24
 -3.6100000E-03    1.0000004E-24
 -3.5750000E-03    1.0000000E-24
 -3.5399999E-03    9.9999972E-25
 -3.5049999E-03    9.9999992E-25
 -3.4700001E-03    9.9999992E-25
 -3.4350001E-03    9.9999992E-25
 -3.4000000E-03    1.0000000E-24
 -3.3650000E-03    1.0000003E-24
 -3.3300000E-03    1.0000011E-24
 -3.2949999E-03    1.0000005E-24
 -3.2599999E-03    9.9999923E-25
 -3.2250001E-03    9.9999953E-25
 -3.1900001E-03    1.0000007E-24
 -3.1550000E-03    9.9999992E-25
 -3.1200000E-03    9.9999893E-25
 -3.0850000E-03    1.0000005E-24
 -3.0499999E-03    1.0000012E-24
 -3.0149999E-03    9.9999953E-25
 -2.9800001E-03    9.9999953E-25
 -2.9450001E-03    1.0000012E-24
 -2.9100000E-03    1.0000005E-24
 -2.8750000E-03    9.9999913E-25
 -2.8400000E-03    1.0000003E-24
 -2.8049999E-03    1.0000008E-24
 -2.7699999E-03    9.9999923E-25
 -2.7350001E-03    9.9999933E-25
 -2.7000001E-03    1.0000008E-24
 -2.6650000E-03    1.0000002E-24
 -2.6300000E-03    9.9999884E-25
 -2.5950000E-03    1.0000001E-24
 -2.5599999E-03    1.0000013E-24
 -2.5249999E-03    1.0000003E-24
 -2.4900001E-03    9.9999953E-25
 -2.4550001E-03    1.0000000E-24
 -2.4200000E-03    1.0000002E-24
 -2.3850000E-03    1.0000004E-24
 -2.3500000E-03    1.0000010E-24
 -2.3149999E-03    1.0000003E-24
 -2.2799999E-03    9.9999874E-25
 -2.2450001E-03    9.9999884E-25
 -2.2100001E-03    1.0000007E-24
 -2.1750000E-03    1.0000004E-24
 -2.1400000E-03    9.9999913E-25
 -2.1050000E-03    1.0000001E-24
 -2.0699999E-03    1.0000017E-24
 -2.0349999E-03    1.0000007E-24
 -2.0000001E-03    9.9999933E-25
 -1.9650001E-03    9.9999972E-25
 -1.9300000E-03    1.0000001E-24
 -1.8950000E-03    9.9999943E-25
 -1.8600000E-03    9.9999992E-25
 -1.8250000E-03    1.0000008E-24
 -1.7900000E-03    1.0000006E-24
 -1.7550000E-03    1.0000006E-24
 -1.7199999E-03    1.0000008E-24
 -1.6850000E-03    9.9999972E-25
 -1.6500000E-03    9.9999854E-25
 -1.6150000E-03    9.9999963E-25
 -1.5800000E-03    1.0000010E-24
 -1.5450000E-03    1.0000004E-24
 -1.5100000E-03    9.9999943E-25
 -1.4750001E-03    9.9999982E-25
 -1.4400000E-03    1.0000005E-24
 -1.4050000E-03    1.0000003E-24
 -1.3700000E-03    9.9999933E-25
 -1.3350000E-03    9.9999943E-25
 -1.3000000E-03    1.0000006E-24
 -1.2650000E-03    1.0000011E-24
 -1.2300001E-03    9.9999923E-25
 -1.1950000E-03    9.9999844E-25
 -1.1600000E-03    1.0000006E-24
 -1.1250000E-03    1.0000014E-24
 -1.0900000E-03    9.9999933E-25
 -1.0550000E-03    1.0000000E-24
 -1.0200000E-03    1.0000025E-24
 -9.8500005E-04    1.0000010E-24
 -9.5000002E-04    9.9999824E-25
 -9.1499998E-04    9.9999884E-25
 -8.8000001E-04    1.0000005E-24
 -8.4499997E-04    1.0000003E-24
 -8.1000000E-04    9.9999992E-25
 -7.7500002E-04    1.0000001E-24
 -7.3999999E-04    1.0000003E-24
 -7.0500001E-04    1.0000002E-24
 -6.6999998E-04    1.0000004E-24
 -6.3500000E-04    9.9999982E-25
 -6.0000003E-04    9.9999953E-25
 -5.6499999E-04    1.0000003E-24
 -5.3000002E-04    1.0000009E-24
 -4.9499999E-04    9.9999982E-25
 -4.6000001E-04    9.9999923E-25
 -4.2500001E-04    1.0000007E-24
 -3.9000000E-04    1.0000011E-24
 -3.5500000E-04    9.9999963E-25
 -3.1999999E-04    9.9999943E-25
 -2.8499999E-04    1.0000003E-24
 -2.5000001E-04    1.0000003E-24
 -2.1499999E-04    9.9999953E-25
 -1.8000000E-04    1.0000001E-24
 -1.4500000E-04    1.0000008E-24
 -1.1000000E-04    1.0000008E-24
 -7.5000004E-05    1.0000008E-24
 -3.9999999E-05    1.0000009E-24
 -4.9999999E-06    9.9999963E-25
  2.9999999E-05    9.9999824E-25
  6.5000000E-05    9.9999943E-25
  9.9999997E-05    1.0000011E-24
  1.3499999E-04    9.9999992E-25
  1.7000000E-04    9.9999913E-25
  2.0500000E-04    1.0000004E-24
  2.3999999E-04    1.0000003E-24
  2.7500000E-04    9.9999854E-25
  3.1000000E-04    9.9999972E-25
  3.4500001E-04    1.0000020E-24
  3.8000001E-04    1.0000015E-24
  4.1499999E-04    9.9999992E-25
  4.4999999E-04    9.9999943E-25
  4.8500000E-04    9.9999963E-25
  5.2000000E-04    9.9999963E-25
  5.5499998E-04    9.9999982E-25
  5.9000001E-04    1.0000010E-24
  6.2499999E-04    1.0000014E-24
  6.6000002E-04    1.0000001E-24
  6.9500000E-04    9.9999972E-25
  7.3000003E-04    1.0000004E-24
  7.6500000E-04    9.9999923E-25
  7.9999998E-04    9.9999834E-25
  8.3500001E-04    1.0000002E-24
  8.6999999E-04    1.0000016E-24
  9.0500002E-04    1.0000004E-24
  9.4000000E-04    9.9999923E-25
  9.7499997E-04    1.0000000E-24
  1.0100000E-03    1.0000003E-24
  1.0450000E-03    9.9999913E-25
  1.0800000E-03    9.9999893E-25
  1.1150000E-03    1.0000001E-24
  1.1500000E-03    1.0000012E-24
  1.1849999E-03    1.0000005E-24
  1.2200000E-03    9.9999923E-25
  1.2550000E-03    9.9999943E-25
  1.2900000E-03    1.0000008E-24
  1.3250000E-03    1.0000010E-24
  1.3600000E-03    1.0000001E-24
  1.3950000E-03    1.0000007E-24
  1.4299999E-03    1.0000010E-24
  1.4650000E-03    9.9999903E-25
  1.5000000E-03    9.9999854E-25
  1.5350000E-03    1.0000013E-24
  1.5700000E-03    1.0000015E-24
  1.6050000E-03    9.9999884E-25
  1.6400000E-03    9.9999864E-25
  1.6749999E-03    1.0000000E-24
  1.7100000E-03    1.0000001E-24
  1.7450000E-03    1.0000005E-24
  1.7800000E-03    1.0000014E-24
  1.8150000E-03    1.0000007E-24
  1.8500000E-03    9.9999982E-25
  1.8850000E-03    9.9999953E-25
  1.9200000E-03    9.9999972E-25
  1.9550000E-03    1.0000003E-24
  1.9900000E-03    1.0000004E-24
  2.0250001E-03    9.9999982E-25
  2.0600001E-03    9.9999972E-25
  2.0949999E-03    9.9999982E-25
  2.1299999E-03    9.9999982E-25
  2.1650000E-03    1.0000005E-24
  2.2000000E-03    1.0000006E-24
  2.2350000E-03    9.9999972E-25
  2.2700001E-03    9.9999953E-25
  2.3050001E-03    9.9999992E-25
  2.3399999E-03    9.9999953E-25
  2.3749999E-03    9.9999982E-25
  2.4100000E-03    1.0000006E-24
  2.4450000E-03    1.0000010E-24
  2.4800000E-03    1.0000003E-24
  2.5150001E-03    9.9999923E-25
  2.5500001E-03    9.9999963E-25
  2.5849999E-03    1.0000013E-24
  2.6199999E-03    1.0000004E-24
  2.6550000E-03    9.9999913E-25
  2.6900000E-03    9.9999972E-25
  2.7250000E-03    9.9999992E-25
  2.7600001E-03    9.9999972E-25
  2.7950001E-03    1.0000010E-24
  2.8299999E-03    1.0000007E-24
  2.8649999E-03    9.9999893E-25
  2.9000000E-03    1.0000003E-24
  2.9350000E-03    1.0000015E-24
  2.9700000E-03    9.9999923E-25
  3.0050001E-03    9.9999923E-25
  3.0400001E-03    1.0000025E-24
  3.0749999E-03    1.0000023E-24
  3.1099999E-03    9.9999903E-25
  3.1450000E-03    9.9999923E-25
  3.1800000E-03    1.0000013E-24
  3.2150000E-03    9.9999963E-25
  3.2500001E-03    9.9999667E-25
  3.2850001E-03    9.9999815E-25
  3.3199999E-03    1.0000016E-24
  3.3549999E-03    1.0000007E-24
  3.3900000E-03    9.9999893E-25
  3.4250000E-03    1.0000009E-24
  3.4600000E-03    1.0000021E-24
  3.4950001E-03    1.0000000E-24
  3.5300001E-03    9.9999884E-25
  3.5649999E-03    1.0000003E-24
  3.5999999E-03    1.0000014E-24
  3.6350000E-03    1.0000000E-24
  3.6700000E-03    1.0000001E-24
  3.7050000E-03    1.0000008E-24
  3.7400001E-03    9.9999923E-25
  3.7750001E-03    9.9999805E-25
  3.8099999E-03    1.0000003E-24
  3.8449999E-03    1.0000016E-24
  3.8800000E-03    9.9999982E-25
  3.9149998E-03    1.0000005E-24
  3.9499998E-03    1.0000017E-24
  3.9849998E-03    9.9999805E-25
  4.0199999E-03    9.9999627E-25
  4.0549999E-03    1.0000021E-24
  4.0899999E-03    1.0000040E-24
  4.1250000E-03    9.9999716E-25
  4.1600000E-03    9.9999736E-25
  4.1950000E-03    1.0000060E-24
  4.2300001E-03    1.0000012E-24
  4.2650001E-03    9.9998907E-25
  4.3000001E-03    1.0000015E-24
  4.3350002E-03    1.0000153E-24
  4.3700002E-03    9.9999105E-25
  4.4049998E-03    9.9998326E-25
  4.4399998E-03    1.0000265E-24
  4.4749998E-03    1.0000159E-24
  4.5099999E-03    9.9994707E-25
  4.5449999E-03    9.9999529E-25
  4.5799999E-03    1.0000880E-24
  4.6150000E-03    9.9997162E-25
  4.6500000E-03    9.9986966E-25
  4.6850001E-03    1.0000970E-24
  4.7200001E-03    1.0001719E-24
  4.7550001E-03    9.9978545E-25
  4.7900002E-03    9.9981040E-25
  4.8250002E-03    1.0004002E-24
  4.8600002E-03    1.0001481E-24
  4.8949998E-03    9.9933491E-25
  4.9299998E-03    1.0000110E-24
  4.9649999E-03    1.0010048E-24
  4.9999999E-03    9.9962916E-25
  5.0349999E-03    9.9862346E-25
  5.0700000E-03    1.0010472E-24
  5.1050000E-03    1.0016824E-24
  5.1400000E-03    9.9782809E-25
  5.1750001E-03    9.9827172E-25
  5.2100001E-03    1.0038762E-24
  5.2450001E-03    1.0011817E-24
  5.2800002E-03    9.9375195E-25
  5.3150002E-03    1.0004727E-24
  5.3500002E-03    1.0092544E-24
  5.3849998E-03    9.9601578E-25
  5.4199998E-03    9.8737647E-25
  5.4549999E-03    1.0103676E-24
  5.4899999E-03    1.0156820E-24
  5.5249999E-03    9.7911897E-25
  5.5600000E-03    9.8289042E-25
  5.5950000E-03    1.0369558E-24
  5.6300000E-03    1.0146434E-24
  5.6650001E-03    9.3999719E-25
  5.7000001E-03    9.9525719E-25
  5.7350001E-03    1.0910346E-24
  5.7700002E-03    9.8223290E-25
  5.8050002E-03    8.6996103E-25
  5.8400002E-03    1.0599982E-24
  5.8749998E-03    1.1750289E-24
  5.9099998E-03    8.6889193E-25
  5.9449999E-03    7.7935207E-25
  5.9799999E-03    1.2420603E-24
  6.0149999E-03    1.2562700E-24
  6.0500000E-03    5.9526492E-25
  6.0850000E-03    7.3651777E-25
  6.1200000E-03    1.6300360E-24
  6.1550001E-03    1.2129096E-24
  6.1900001E-03    7.5498364E-26
  6.2250001E-03    9.3961844E-25
  6.2600002E-03    2.2848108E-24
  6.2950002E-03    7.4251242E-25
  6.3299998E-03   -6.8947937E-25
  6.3649998E-03    1.8281138E-24
  6.3999998E-03    3.0870419E-24
  6.4349999E-03   -7.6775725E-25
  6.4699999E-03   -1.3800624E-24
  6.5049999E-03    4.2257322E-24
  6.5400000E-03    3.4047071E-24
  6.5750000E-03   -4.3869442E-24
  6.6100000E-03   -9.0622408E-25
  6.6450001E-03    9.4711050E-24
  6.6800001E-03    1.5118439E-24
  6.7150001E-03   -1.1725967E-23
  6.7500002E-03    3.2956193E-24
  6.7850002E-03    1.9410331E-23
  6.8199998E-03   -6.1976269E-24
  6.8549998E-03   -2.4759972E-23
  6.8899998E-03    1.6044273E-23
  6.9249999E-03    3.5925713E-23
  6.9599999E-03   -2.5830370E-23
  6.9949999E-03   -4.4866896E-23
  7.0300000E-03    4.4627165E-23
  7.0650000E-03    5.9175271E-23
  7.1000000E-03   -6.5451423E-23
  7.1350001E-03   -6.9793440E-23
  7.1700001E-03    9.7055432E-23
  7.2050001E-03    8.2579430E-23
  7.2400002E-03   -1.3162918E-22
  7.2750002E-03   -8.5656814E-23
  7.3099998E-03    1.7642449E-22
  7.3449998E-03    8.0482840E-23
  7.3799998E-03   -2.2134240E-22
  7.4149999E-03   -4.8572387E-23
  7.4499999E-03    2.7057404E-22
  7.4850000E-03   -1.8151323E-23
  7.5200000E-03   -3.1044759E-22
  7.5550000E-03    1.5133629E-22
  7.5900001E-03    3.4170708E-22
  7.6250001E-03   -3.7632820E-22
  7.6600001E-03   -3.4850620E-22
  7.6950002E-03    7.4603997E-22
  7.7300002E-03    3.3241826E-22
  7.7650002E-03   -1.3098360E-21
  7.7999998E-03   -2.8367663E-22
  7.8349998E-03    2.1442757E-21
  7.8699999E-03    2.1759911E-22
  7.9049999E-03   -3.3160691E-21
  7.9399999E-03   -1.4761969E-22
  7.9750000E-03    4.9031167E-21
  8.0100000E-03    1.2148116E-22
  8.0450000E-03   -6.9431731E-21
  8.0800001E-03   -1.8978004E-22
  8.1150001E-03    9.4357947E-21
  8.1500001E-03    4.3036444E-22
  8.1850002E-03   -1.2268022E-20
  8.2200002E-03   -8.9396596E-22
  8.2550002E-03    1.5192277E-20
  8.2900003E-03    1.5905553E-21
  8.3250003E-03   -1.7732458E-20
  8.3600003E-03   -2.3784337E-21
  8.3950004E-03    1.9155787E-20
  8.4300004E-03    2.8746001E-21
  8.4650004E-03   -1.8399342E-20
  8.5000005E-03   -2.2521485E-21
  8.5349996E-03    1.4105439E-20
  8.5699996E-03   -9.4536707E-22
  8.6049996E-03   -4.6736682E-21
  8.6399997E-03    9.0838923E-21
  8.6749997E-03   -1.1498870E-20
  8.7099997E-03   -2.5645460E-20
  8.7449998E-03    3.5670758E-20
  8.7799998E-03    5.5416991E-20
  8.8149998E-03   -6.8137000E-20
  8.8499999E-03   -1.0441907E-19
  8.8849999E-03    1.0745386E-19
  8.9199999E-03    1.7954167E-19
  8.9550000E-03   -1.4942152E-19
  8.9900000E-03   -2.8755181E-19
  9.0250000E-03    1.8608435E-19
  9.0600001E-03    4.3336626E-19
  9.0950001E-03   -2.0488802E-19
  9.1300001E-03   -6.1723954E-19
  9.1650002E-03    1.8856864E-19
  9.2000002E-03    8.3085836E-19
  9.2350002E-03   -1.1631109E-19
  9.2700003E-03   -1.0522873E-18
  9.3050003E-03   -3.2810542E-20
  9.3400003E-03    1.2403372E-18
  9.3750004E-03    2.7319222E-19
  9.4100004E-03   -1.3292646E-18
  9.4450004E-03   -6.0170720E-19
  9.4799995E-03    1.2257678E-18
  9.5149996E-03    9.8181117E-19
  9.5499996E-03   -8.1099212E-19
  9.5849996E-03   -1.3228387E-18
  9.6199997E-03   -4.8490151E-20
  9.6549997E-03    1.4565054E-18
  9.6899997E-03    1.4762894E-18
  9.7249998E-03   -1.1150077E-18
  9.7599998E-03   -3.5438382E-18
  9.7949998E-03   -8.1073503E-20
  9.8299999E-03    6.2074268E-18
  9.8649999E-03    2.6128359E-18
  9.8999999E-03   -9.2259201E-18
  9.9350000E-03   -7.0145900E-18
  9.9700000E-03    1.2068185E-17
  1.0005000E-02    1.3768272E-17
  1.0040000E-02   -1.3830370E-17
  1.0075000E-02   -2.3123798E-17
  1.0110000E-02    1.3198127E-17
  1.0145000E-02    3.4837777E-17
  1.0180000E-02   -8.5047104E-18
  1.0215000E-02   -4.7842413E-17
  1.0250000E-02   -2.0508975E-18
  1.0285000E-02    5.9889418E-17
  1.0320000E-02    1.9958866E-17
  1.0355000E-02   -6.7259267E-17
  1.0390000E-02   -4.5676434E-17
  1.0425000E-02    6.4680362E-17
  1.0460000E-02    7.7626526E-17
  1.0495000E-02   -4.5653951E-17
  1.0530000E-02   -1.1100232E-16
  1.0565000E-02    3.4089598E-18
  1.0600000E-02    1.3659441E-16
  1.0635000E-02    6.7311346E-17
  1.0670000E-02   -1.4002160E-16
  1.0705000E-02   -1.6753495E-16
  1.0740000E-02    1.0191720E-16
  1.0775000E-02    2.9054392E-16
  1.0810000E-02    2.5229415E-19
  1.0845000E-02   -4.1803029E-16
  1.0880000E-02   -1.8805915E-16
  1.0915000E-02    5.1686665E-16
  1.0950000E-02    4.7521555E-16
  1.0985000E-02   -5.3794411E-16
  1.1020000E-02   -8.5796825E-16
  1.1055000E-02    4.1896079E-16
  1.1090000E-02    1.3037446E-15
  1.1125000E-02   -9.3180096E-17
  1.1160000E-02   -1.7402406E-15
  1.1195000E-02   -4.9421905E-16
  1.1230000E-02    2.0485687E-15
  1.1265000E-02    1.3617739E-15
  1.1300000E-02   -2.0653655E-15
  1.1335000E-02   -2.4610995E-15
  1.1370000E-02    1.5994091E-15
  1.1405000E-02    3.6448302E-15
  1.1440000E-02   -4.6763524E-16
  1.1475000E-02   -4.6417156E-15
  1.1510000E-02   -1.4471645E-15
  1.1545000E-02    5.0509871E-15
  1.1580000E-02    4.1197239E-15
  1.1615000E-02   -4.3702381E-15
  1.1650000E-02   -7.2970254E-15
  1.1685000E-02    2.0702265E-15
  1.1720000E-02    1.0423812E-14
  1.1755000E-02    2.2754727E-15
  1.1790000E-02   -1.2607396E-14
  1.1825000E-02   -8.8093315E-15
  1.1860000E-02    1.2656447E-14
  1.1895000E-02    1.7178001E-14
  1.1930000E-02   -9.2278531E-15
  1.1965000E-02   -2.6332038E-14
  1.2000000E-02    1.1046728E-15
  1.2035000E-02    3.4401691E-14
  1.2070000E-02    1.2396414E-14
  1.2105000E-02   -3.8729033E-14
  1.2140000E-02   -3.0928456E-14
  1.2175000E-02    3.6138112E-14
  1.2210000E-02    5.2617677E-14
  1.2245000E-02   -2.3502738E-14
  1.2280000E-02   -7.3707255E-14
  1.2315000E-02   -1.3808641E-15
  1.2350000E-02    8.8519646E-14
  1.2385000E-02    3.8692241E-14
  1.2420000E-02   -8.9922637E-14
  1.2455000E-02   -8.5439319E-14
  1.2490000E-02    7.0440710E-14
  1.2525000E-02    1.3455956E-13
  1.2560000E-02   -2.4045232E-14
  1.2595000E-02   -1.7464928E-13
  1.2630000E-02   -5.1517255E-14
  1.2665000E-02    1.9071951E-13
  1.2700000E-02    1.5222371E-13
  1.2735000E-02   -1.6629184E-13
  1.2770000E-02   -2.6569719E-13
  1.2805000E-02    8.6929277E-14
  1.2840000E-02    3.7032692E-13
  1.2875000E-02    5.5054861E-14
  1.2910000E-02   -4.3640455E-13
  1.2945000E-02   -2.5541646E-13
  1.2980000E-02    4.2992573E-13
  1.3015000E-02    4.9349527E-13
  1.3050000E-02   -3.1928163E-13
  1.3085000E-02   -7.2994372E-13
  1.3120000E-02    8.4376882E-14
  1.3155000E-02    9.0826988E-13
  1.3190000E-02    2.7315343E-13
  1.3225000E-02   -9.6147732E-13
  1.3260000E-02   -7.2083669E-13
  1.3295000E-02    8.2426579E-13
  1.3330000E-02    1.1902268E-12
  1.3365000E-02   -4.4996941E-13
  1.3400000E-02   -1.5787481E-12
  1.3435000E-02   -1.7020123E-13
  1.3470000E-02    1.7609132E-12
  1.3505000E-02    9.8965454E-13
  1.3540000E-02   -1.6097970E-12
  1.3575000E-02   -1.8958461E-12
  1.3610000E-02    1.0272949E-12
  1.3645000E-02    2.7120500E-12
  1.3680000E-02    2.1184167E-14
  1.3715000E-02   -3.2157146E-12
  1.3750000E-02   -1.4747283E-12
  1.3785000E-02    3.1749126E-12
  1.3820000E-02    3.1567143E-12
  1.3855000E-02   -2.4002452E-12
  1.3890000E-02   -4.7756395E-12
  1.3925000E-02    8.0466655E-13
  1.3960000E-02    5.9541057E-12
  1.3995000E-02    1.5409217E-12
  1.4030000E-02   -6.2882724E-12
  1.4065000E-02   -4.3714307E-12
  1.4100000E-02    5.4331626E-12
  1.4135000E-02    7.2258193E-12
  1.4170000E-02   -3.2012429E-12
  1.4205000E-02   -9.4910590E-12
  1.4240000E-02   -3.4546785E-13
  1.4275000E-02    1.0495140E-11
  1.4310000E-02    4.8338330E-12
  1.4345000E-02   -9.6413693E-12
  1.4380000E-02   -9.5720810E-12
  1.4415000E-02    6.5639798E-12
  1.4450000E-02    1.3613396E-11
  1.4485000E-02   -1.2743876E-12
  1.4520000E-02   -1.5895191E-11
  1.4555000E-02   -5.7385143E-12
  1.4590000E-02    1.5441839E-11
  1.4625000E-02    1.3489200E-11
  1.4660000E-02   -1.1600560E-11
  1.4695000E-02   -2.0582537E-11
  1.4730000E-02    4.2648311E-12
  1.4765000E-02    2.5413198E-11
  1.4800000E-02    5.9682628E-12
  1.4835000E-02   -2.6459303E-11
  1.4870000E-02   -1.7757726E-11
  1.4905000E-02    2.2626184E-11
  1.4940000E-02    2.9130854E-11
  1.4975000E-02   -1.3574820E-11
  1.5010000E-02   -3.7756482E-11
  1.5045000E-02   -4.0656260E-14
  1.5080000E-02    4.1353167E-11
  1.5115000E-02    1.6497524E-11
  1.5150000E-02   -3.8170654E-11
  1.5185000E-02   -3.3139425E-11
  1.5220000E-02    2.7454932E-11
  1.5255000E-02    4.6733135E-11
  1.5290000E-02   -9.7943424E-12
  1.5325000E-02   -5.4011875E-11
  1.5360000E-02   -1.2747929E-11
  1.5395000E-02    5.2323625E-11
  1.5430000E-02    3.6779503E-11
  1.5465000E-02   -4.0267501E-11
  1.5500000E-02   -5.8018687E-11
  1.5535000E-02    1.8185493E-11
  1.5570000E-02    7.1985938E-11
  1.5605000E-02    1.1613081E-11
  1.5640000E-02   -7.4846906E-11
  1.5675001E-02   -4.4980943E-11
  1.5710000E-02    6.4261617E-11
  1.5745001E-02    7.6444552E-11
  1.5780000E-02   -4.0071894E-11
  1.5814999E-02   -1.0005456E-10
  1.5850000E-02    4.6660713E-12
  1.5884999E-02    1.1045766E-10
  1.5920000E-02    3.7099653E-11
  1.5954999E-02   -1.0401108E-10
  1.5990000E-02   -7.8475025E-11
  1.6024999E-02    7.9724102E-11
  1.6060000E-02    1.1184494E-10
  1.6094999E-02   -3.9810742E-11
  1.6130000E-02   -1.3007383E-10
  1.6164999E-02   -1.0315644E-11
  1.6200000E-02    1.2793709E-10
  1.6235000E-02    6.2685100E-11
  1.6270000E-02   -1.0335677E-10
  1.6305000E-02   -1.0800463E-10
  1.6340001E-02    5.8159852E-11
  1.6375000E-02    1.3730229E-10
  1.6410001E-02    1.8570254E-12
  1.6445000E-02   -1.4368925E-10
  1.6480001E-02   -6.7650607E-11
  1.6515000E-02    1.2388417E-10
  1.6550001E-02    1.2837255E-10
  1.6585000E-02   -7.9158527E-11
  1.6620001E-02   -1.7329660E-10
  1.6655000E-02    1.5457120E-11
  1.6690001E-02    1.9387460E-10
  1.6725000E-02    5.7397826E-11
  1.6759999E-02   -1.8551119E-10
  1.6795000E-02   -1.2732394E-10
  1.6829999E-02    1.4867467E-10
  1.6865000E-02    1.8214889E-10
  1.6899999E-02   -8.9067455E-11
  1.6935000E-02   -2.1192403E-10
  1.6969999E-02    1.6755857E-11
  1.7005000E-02    2.1090733E-10
  1.7039999E-02    5.5624245E-11
  1.7075000E-02   -1.7877691E-10
  1.7109999E-02   -1.1526090E-10
  1.7145000E-02    1.2076588E-10
  1.7180000E-02    1.5166947E-10
  1.7215000E-02   -4.6623906E-11
  1.7250000E-02   -1.5873601E-10
  1.7285001E-02   -3.1405337E-11
  1.7320000E-02    1.3579128E-10
  1.7355001E-02    1.0111685E-10
  1.7390000E-02   -8.7437432E-11
  1.7425001E-02   -1.5274038E-10
  1.7460000E-02    2.2202393E-11
  1.7495001E-02    1.8058031E-10
  1.7530000E-02    4.9551380E-11
  1.7565001E-02   -1.8352005E-10
  1.7600000E-02   -1.1781855E-10
  1.7635001E-02    1.6438620E-10
  1.7670000E-02    1.7459428E-10
  1.7704999E-02   -1.2857049E-10
  1.7740000E-02   -2.1458305E-10
  1.7774999E-02    8.2550237E-11
  1.7810000E-02    2.3503613E-10
  1.7844999E-02   -3.2866366E-11
  1.7880000E-02   -2.3516911E-10
  1.7914999E-02   -1.4254264E-11
  1.7950000E-02    2.1570729E-10
  1.7984999E-02    5.2876394E-11
  1.8020000E-02   -1.7887004E-10
  1.8054999E-02   -7.7412500E-11
  1.8090000E-02    1.2869777E-10
  1.8124999E-02    8.3151208E-11
  1.8160000E-02   -7.1280412E-11
  1.8195000E-02   -6.7296911E-11
  1.8230001E-02    1.4361587E-11
  1.8265000E-02    3.0098042E-11
  1.8300001E-02    3.3908560E-11
  1.8335000E-02    2.4618172E-11
  1.8370001E-02   -6.6735333E-11
  1.8405000E-02   -8.9969712E-11
  1.8440001E-02    8.0190757E-11
  1.8475000E-02    1.5743745E-10
  1.8510001E-02   -7.3841690E-11
  1.8545000E-02   -2.1849175E-10
  1.8580001E-02    5.0463807E-11
  1.8615000E-02    2.6578592E-10
  1.8650001E-02   -1.5332378E-11
  1.8685000E-02   -2.9376171E-10
  1.8719999E-02   -2.4356600E-11
  1.8755000E-02    2.9900668E-10
  1.8789999E-02    5.9697504E-11
  1.8825000E-02   -2.8099925E-10
  1.8859999E-02   -8.0331429E-11
  1.8895000E-02    2.4366661E-10
  1.8929999E-02    7.5887512E-11
  1.8965000E-02   -1.9705222E-10
  1.8999999E-02   -3.9513479E-11
  1.9035000E-02    1.5706460E-10
  1.9069999E-02   -2.7426231E-11
  1.9105000E-02   -1.4159753E-10
  1.9140000E-02    1.1226157E-10
  1.9175000E-02    1.6350064E-10
  1.9210000E-02   -1.9229233E-10
  1.9245001E-02   -2.2307252E-10
  1.9280000E-02    2.4156208E-10
  1.9315001E-02    3.0392325E-10
  1.9350000E-02   -2.4181807E-10
  1.9385001E-02   -3.7605477E-10
  1.9420000E-02    1.9297697E-10
  1.9455001E-02    4.0716147E-10
  1.9490000E-02   -1.1643062E-10
  1.9525001E-02   -3.7750525E-10
  1.9560000E-02    4.7639330E-11
  1.9595001E-02    2.9027691E-10
  1.9630000E-02   -2.0948339E-11
  1.9664999E-02   -1.7159887E-10
  1.9700000E-02    5.3800801E-11
  1.9734999E-02    5.9310445E-11
  1.9770000E-02   -1.3831264E-10
  1.9804999E-02    1.4968205E-11
  1.9840000E-02    2.4601726E-10
  1.9874999E-02   -4.0642524E-11
  1.9910000E-02   -3.4421233E-10
  1.9944999E-02    2.9998757E-11
  1.9980000E-02    4.1333997E-10
  2.0014999E-02   -6.3427323E-12
  2.0050000E-02   -4.5423482E-10
  2.0085000E-02   -1.2971947E-11
  2.0120000E-02    4.8170840E-10
  2.0155000E-02    2.8125365E-11
  2.0190001E-02   -5.0834192E-10
  2.0225000E-02   -5.4824173E-11
  2.0260001E-02    5.2893351E-10
  2.0295000E-02    1.0748964E-10
  2.0330001E-02   -5.1960164E-10
  2.0365000E-02   -1.8001863E-10
  2.0400001E-02    4.5520576E-10
  2.0435000E-02    2.4142938E-10
  2.0470001E-02   -3.3174441E-10
  2.0505000E-02   -2.5062555E-10
  2.0540001E-02    1.7794877E-10
  2.0575000E-02    1.8176091E-10
  2.0609999E-02   -4.8065735E-11
  2.0645000E-02   -4.7808629E-11
  2.0679999E-02   -6.5556705E-12
  2.0715000E-02   -9.6178059E-11
  2.0749999E-02   -2.6085835E-11
  2.0785000E-02    1.8267055E-10
  2.0819999E-02    1.0534109E-10
  2.0855000E-02   -1.7494105E-10
  2.0889999E-02   -1.6164363E-10
  2.0925000E-02    9.0369288E-11
  2.0959999E-02    1.3787373E-10
  2.0995000E-02    7.5274752E-12
  2.1029999E-02   -2.5180559E-11
  2.1065000E-02   -4.2900558E-11
  2.1100000E-02   -1.2159956E-10
  2.1135001E-02   -1.9495261E-11
  2.1170000E-02    2.1293656E-10
  2.1205001E-02    1.4015993E-10
  2.1240000E-02   -1.8855574E-10
  2.1275001E-02   -2.2725855E-10
  2.1310000E-02    6.3511495E-11
  2.1345001E-02    2.0047526E-10
  2.1380000E-02    8.3217946E-11
  2.1415001E-02   -3.8855995E-11
  2.1450000E-02   -1.5074317E-10
  2.1485001E-02   -1.9717961E-10
  2.1520000E-02    8.0653456E-11
  2.1555001E-02    3.9394119E-10
  2.1590000E-02    9.4618376E-11
  2.1624999E-02   -4.5628412E-10
  2.1660000E-02   -2.5693705E-10
  2.1694999E-02    3.9074305E-10
  2.1730000E-02    2.9677721E-10
  2.1764999E-02   -2.9018016E-10
  2.1800000E-02   -1.7577925E-10
  2.1834999E-02    2.8477906E-10
  2.1870000E-02   -3.4764712E-11
  2.1904999E-02   -4.4798842E-10
  2.1940000E-02    2.0451163E-10
  2.1974999E-02    7.6075268E-10
  2.2010000E-02   -1.9306856E-10
  2.2045000E-02   -1.0655781E-09
  2.2080000E-02    2.8612839E-12
  2.2115000E-02    1.2184418E-09
  2.2150001E-02    2.6372204E-10
  2.2185000E-02   -1.1363142E-09
  2.2220001E-02   -4.1418161E-10
  2.2255000E-02    9.1679520E-10
  2.2290001E-02    3.6767309E-10
  2.2325000E-02   -6.7749201E-10
  2.2360001E-02   -8.0208354E-11
  2.2395000E-02    6.3766548E-10
  2.2430001E-02   -2.4805311E-10
  2.2465000E-02   -7.8958778E-10
  2.2500001E-02    4.9158833E-10
  2.2535000E-02    1.1033803E-09
  2.2569999E-02   -4.5313478E-10
  2.2605000E-02   -1.2737301E-09
  2.2639999E-02    3.1968128E-10
  2.2675000E-02    1.3033029E-09
  2.2709999E-02   -1.0229929E-10
  2.2745000E-02   -1.0107812E-09
  2.2779999E-02    1.7429701E-10
  2.2815000E-02    7.5336148E-10
  2.2849999E-02   -3.6346917E-10
  2.2885000E-02   -4.6150977E-10
  2.2919999E-02    8.8852475E-10
  2.2955000E-02    6.2897054E-10
  2.2990000E-02   -1.1380680E-09
  2.3025000E-02   -7.8180029E-10
  2.3060000E-02    1.4087607E-09
  2.3095001E-02    1.2715241E-09
  2.3130000E-02   -1.0625671E-09
  2.3165001E-02   -1.2128013E-09
  2.3200000E-02    9.7985353E-10
  2.3235001E-02    1.3279732E-09
  2.3270000E-02   -4.6039034E-10
  2.3305001E-02   -6.7270184E-10
  2.3340000E-02    7.7522866E-10
  2.3375001E-02    6.5461392E-10
  2.3410000E-02   -5.9725941E-10
  2.3445001E-02    1.1281488E-11
  2.3480000E-02    1.4342018E-09
  2.3514999E-02    5.8959315E-10
  2.3550000E-02   -1.0688669E-09
  2.3584999E-02   -1.8798198E-10
  2.3620000E-02    1.7364664E-09
  2.3654999E-02    1.1709226E-09
  2.3690000E-02   -6.4803524E-10
  2.3724999E-02   -2.9957184E-10
  2.3760000E-02    1.3227686E-09
  2.3794999E-02    1.2297409E-09
  2.3830000E-02    1.1770532E-10
  2.3864999E-02    3.7216258E-10
  2.3900000E-02    1.2300397E-09
  2.3934999E-02    8.4394070E-10
  2.3970000E-02    2.3987298E-10
  2.4005000E-02    9.7907371E-10
  2.4040001E-02    1.8027830E-09
  2.4075000E-02    1.1993155E-09
  2.4110001E-02    4.3318507E-10
  2.4145000E-02    1.0254804E-09
  2.4180001E-02    1.9656725E-09
  2.4215000E-02    1.8552925E-09
  2.4250001E-02    1.3108213E-09
  2.4285000E-02    1.3726519E-09
  2.4320001E-02    1.7490311E-09
  2.4355000E-02    1.9522932E-09
  2.4390001E-02    2.2362163E-09
  2.4425000E-02    2.5754472E-09
  2.4460001E-02    2.4299109E-09
  2.4495000E-02    2.0171123E-09
  2.4529999E-02    2.2877855E-09
  2.4565000E-02    3.2705840E-09
  2.4599999E-02    3.7644221E-09
  2.4635000E-02    3.1411191E-09
  2.4669999E-02    2.4654061E-09
  2.4705000E-02    3.0907323E-09
  2.4739999E-02    4.5780997E-09
  2.4775000E-02    5.0586682E-09
  2.4809999E-02    3.9998804E-09
  2.4845000E-02    3.3144878E-09
  2.4879999E-02    4.4870134E-09
  2.4915000E-02    6.0173480E-09
  2.4950000E-02    5.8297682E-09
  2.4985000E-02    4.7991038E-09
  2.5020000E-02    5.0809454E-09
  2.5055001E-02    6.3211854E-09
  2.5090000E-02    6.7316135E-09
  2.5125001E-02    6.5247350E-09
  2.5160000E-02    6.9443118E-09
  2.5195001E-02    7.4528730E-09
  2.5230000E-02    7.1765069E-09
  2.5265001E-02    7.2601920E-09
  2.5300000E-02    8.5682759E-09
  2.5335001E-02    9.3600265E-09
  2.5370000E-02    8.4661327E-09
  2.5405001E-02    7.9684899E-09
  2.5440000E-02    9.4199031E-09
  2.5474999E-02    1.0708449E-08
  2.5510000E-02    1.0089718E-08
  2.5544999E-02    9.5428678E-09
  2.5580000E-02    1.0690528E-08
  2.5614999E-02    1.1622156E-08
  2.5650000E-02    1.1038073E-08
  2.5684999E-02    1.0929473E-08
  2.5720000E-02    1.2234675E-08
  2.5754999E-02    1.2741271E-08
  2.5790000E-02    1.1730271E-08
  2.5824999E-02    1.1635431E-08
  2.5860000E-02    1.3155118E-08
  2.5895000E-02    1.3826413E-08
  2.5930000E-02    1.2950887E-08
  2.5965000E-02    1.2812943E-08
  2.6000001E-02    1.3876522E-08
  2.6035000E-02    1.3989938E-08
  2.6070001E-02    1.3135373E-08
  2.6105000E-02    1.3513122E-08
  2.6140001E-02    1.4591429E-08
  2.6175000E-02    1.3904654E-08
  2.6210001E-02    1.2482514E-08
  2.6245000E-02    1.3252521E-08
  2.6280001E-02    1.4999225E-08
  2.6315000E-02    1.4360586E-08
  2.6350001E-02    1.2298032E-08
  2.6385000E-02    1.2240386E-08
  2.6419999E-02    1.3642610E-08
  2.6455000E-02    1.3332619E-08
  2.6489999E-02    1.1492639E-08
  2.6525000E-02    1.0903721E-08
  2.6559999E-02    1.1621781E-08
  2.6595000E-02    1.1325022E-08
  2.6629999E-02    9.9846522E-09
  2.6665000E-02    9.5048112E-09
  2.6699999E-02    9.5924406E-09
  2.6735000E-02    8.6241583E-09
  2.6769999E-02    7.3015651E-09
  2.6805000E-02    6.9220829E-09
  2.6839999E-02    6.3119794E-09
  2.6875000E-02    4.5802224E-09
  2.6910000E-02    3.4702656E-09
  2.6945001E-02    3.6561705E-09
  2.6980000E-02    2.9511140E-09