 -4.8000002E-03    1.0000000E-24
 -4.7650002E-03    1.0000002E-24
 -4.7300002E-03    1.0000002E-24
 -4.6950001E-03    1.0000001E-24
 -4.6600001E-03    1.0000000E-24
 -4.6250001E-03    1.0000003E-24
 -4.5900000E-03    1.0000002E-24
 -4.5550000E-03    9.9999982E-25
 -4.5200000E-03    1.0000005E-24
 -4.4849999E-03    1.0000004E-24
 -4.4499999E-03    9.9999972E-25
 -4.4149999E-03    9.9999992E-25
 -4.3799998E-03    1.0000004E-24
 -4.3449998E-03    1.0000000E-24
 -4.3100002E-03    1.0000001E-24
 -4.2750002E-03    1.0000007E-24
 -4.2400002E-03    1.0000002E-24
 -4.2050001E-03    9.9999923E-25
 -4.1700001E-03    1.0000001E-24
 -4.1350001E-03    1.0000006E-24
 -4.1000000E-03    9.9999992E-25
 -4.0650000E-03    1.0000000E-24
 -4.0300000E-03    1.0000009E-24
 -3.9949999E-03    9.9999982E-25
 -3.9599999E-03    9.9999943E-25
 -3.9249999E-03    1.0000002E-24
 -3.8900001E-03    1.0000003E-24
 -3.8550000E-03    1.0000001E-24
 -3.8200000E-03    1.0000001E-24
 -3.7849999E-03    9.9999963E-25
 -3.7499999E-03    9.9999982E-25
 -3.7150001E-03    1.0000012E-24
 -3.6800001E-03    1.0000008E-24
 -3.6450000E-03    9.9999943E-25
 -3.6100000E-03    1.0000002E-24
 -3.5750000E-03    1.0000008E-24
 -3.5399999E-03    9.9999943E-25
 -3.5049999E-03    9.9999933E-25
 -3.4700001E-03    1.0000010E-24
 -3.4350001E-03    1.0000008E-24
 -3.4000000E-03    9.9999903E-25
 -3.3650000E-03    9.9999972E-25
 -3.3300000E-03    1.0000007E-24
 -3.2949999E-03    1.0000003E-24
 -3.2599999E-03    9.9999992E-25
 -3.2250001E-03    1.0000003E-24
 -3.1900001E-03    9.9999972E-25
 -3.1550000E-03    9.9999953E-25
 -3.1200000E-03    1.0000009E-24
 -3.0850000E-03    1.0000010E-24
 -3.0499999E-03    9.9999933E-25
 -3.0149999E-03    9.9999933E-25
 -2.9800001E-03    1.0000005E-24
 -2.9450001E-03    1.0000003E-24
 -2.9100000E-03    9.9999982E-25
 -2.8750000E-03    1.0000006E-24
 -2.8400000E-03    1.0000008E-24
 -2.8049999E-03    1.0000002E-24
 -2.7699999E-03    1.0000000E-24
 -2.7350001E-03    9.9999943E-25
 -2.7000001E-03    1.0000000E-24
 -2.6650000E-03    1.0000014E-24
 -2.6300000E-03    1.0000005E-24
 -2.5950000E-03    9.9999893E-25
 -2.5599999E-03    9.9999972E-25
 -2.5249999E-03    1.0000011E-24
 -2.4900001E-03    1.0000003E-24
 -2.4550001E-03    1.0000000E-24
 -2.4200000E-03    1.0000004E-24
 -2.3850000E-03    9.9999913E-25
 -2.3500000E-03    1.0000000E-24
 -2.3149999E-03    1.0000016E-24
 -2.2799999E-03    1.0000001E-24
 -2.2450001E-03    9.9999943E-25
 -2.2100001E-03    1.0000020E-24
 -2.1750000E-03    1.0000007E-24
 -2.1400000E-03    9.9999775E-25
 -2.1050000E-03    9.9999923E-25
 -2.0699999E-03    1.0000010E-24
 -2.0349999E-03    9.9999933E-25
 -2.0000001E-03    9.9999982E-25
 -1.9650001E-03    1.0000015E-24
 -1.9300000E-03    1.0000012E-24
 -1.8950000E-03    1.0000005E-24
 -1.8600000E-03    1.0000000E-24
 -1.8250000E-03    9.9999933E-25
 -1.7900000E-03    9.9999992E-25
 -1.7550000E-03    1.0000009E-24
 -1.7199999E-03    1.0000000E-24
 -1.6850000E-03    9.9999963E-25
 -1.6500000E-03    1.0000006E-24
 -1.6150000E-03    9.9999992E-25
 -1.5800000E-03    9.9999992E-25
 -1.5450000E-03    1.0000009E-24
 -1.5100000E-03    9.9999943E-25
 -1.4750001E-03    9.9999844E-25
 -1.4400000E-03    1.0000010E-24
 -1.4050000E-03    1.0000024E-24
 -1.3700000E-03    9.9999982E-25
 -1.3350000E-03    9.9999913E-25
 -1.3000000E-03    1.0000004E-24
 -1.2650000E-03    9.9999992E-25
 -1.2300001E-03    9.9999972E-25
 -1.1950000E-03    1.0000003E-24
 -1.1600000E-03    9.9999963E-25
 -1.1250000E-03    1.0000004E-24
 -1.0900000E-03    1.0000009E-24
 -1.0550000E-03    9.9999933E-25
 -1.0200000E-03    1.0000001E-24
 -9.8500005E-04    1.0000015E-24
 -9.5000002E-04    1.0000000E-24
 -9.1499998E-04    9.9999903E-25
 -8.8000001E-04    1.0000006E-24
 -8.4499997E-04    9.9999963E-25
 -8.1000000E-04    9.9999933E-25
 -7.7500002E-04    1.0000017E-24
 -7.3999999E-04    1.0000014E-24
 -7.0500001E-04    9.9999953E-25
 -6.6999998E-04    1.0000002E-24
 -6.3500000E-04    1.0000001E-24
 -6.0000003E-04    9.9999874E-25
 -5.6499999E-04    9.9999963E-25
 -5.3000002E-04    1.0000012E-24
 -4.9499999E-04    1.0000008E-24
 -4.6000001E-04    9.9999982E-25
 -4.2500001E-04    9.9999972E-25
 -3.9000000E-04    9.9999972E-25
 -3.5500000E-04    1.0000004E-24
 -3.1999999E-04    1.0000016E-24
 -2.8499999E-04    1.0000004E-24
 -2.5000001E-04    9.9999824E-25
 -2.1499999E-04    9.9999903E-25
 -1.8000000E-04    1.0000012E-24
 -1.4500000E-04    1.0000009E-24
 -1.1000000E-04    1.0000012E-24
 -7.5000004E-05    1.0000028E-24
 -3.9999999E-05    1.0000003E-24
 -4.9999999E-06    9.9999696E-25
  2.9999999E-05    9.9999923E-25
  6.5000000E-05    1.0000013E-24
  9.9999997E-05    9.9999982E-25
  1.3499999E-04    1.0000006E-24
  1.7000000E-04    1.0000010E-24
  2.0500000E-04    9.9999834E-25
  2.3999999E-04    9.9999943E-25
  2.7500000E-04    1.0000018E-24
  3.1000000E-04    9.9999923E-25
  3.4500001E-04    9.9999903E-25
  3.8000001E-04    1.0000026E-24
  4.1499999E-04    1.0000004E-24
  4.4999999E-04    9.9999775E-25
  4.8500000E-04    1.0000008E-24
  5.2000000E-04    1.0000014E-24
  5.5499998E-04    9.9999815E-25
  5.9000001E-04    1.0000008E-24
  6.2499999E-04    1.0000036E-24
  6.6000002E-04    9.9999943E-25
  6.9500000E-04    9.9999775E-25
  7.3000003E-04    1.0000013E-24
  7.6500000E-04    1.0000004E-24
  7.9999998E-04    9.9999864E-25
  8.3500001E-04    1.0000011E-24
  8.6999999E-04    1.0000008E-24
  9.0500002E-04    9.9999775E-25
  9.4000000E-04    9.9999953E-25
  9.7499997E-04    1.0000015E-24
  1.0100000E-03    9.9999893E-25
  1.0450000E-03    9.9999943E-25
  1.0800000E-03    1.0000015E-24
  1.1150000E-03    1.0000007E-24
  1.1500000E-03    9.9999992E-25
  1.1849999E-03    1.0000002E-24
  1.2200000E-03    9.9999953E-25
  1.2550000E-03    1.0000003E-24
  1.2900000E-03    1.0000026E-24
  1.3250000E-03    9.9999982E-25
  1.3600000E-03    9.9999696E-25
  1.3950000E-03    1.0000007E-24
  1.4299999E-03    1.0000027E-24
  1.4650000E-03    9.9999943E-25
  1.5000000E-03    9.9999992E-25
  1.5350000E-03    1.0000015E-24
  1.5700000E-03    9.9999765E-25
  1.6050000E-03    9.9999726E-25
  1.6400000E-03    1.0000019E-24
  1.6749999E-03    1.0000023E-24
  1.7100000E-03    1.0000000E-24
  1.7450000E-03    1.0000004E-24
  1.7800000E-03    1.0000004E-24
  1.8150000E-03    9.9999913E-25
  1.8500000E-03    9.9999992E-25
  1.8850000E-03    1.0000014E-24
  1.9200000E-03    1.0000014E-24
  1.9550000E-03    9.9999933E-25
  1.9900000E-03    9.9999765E-25
  2.0250001E-03    9.9999943E-25
  2.0600001E-03    1.0000023E-24
  2.0949999E-03    1.0000011E-24
  2.1299999E-03    9.9999953E-25
  2.1650000E-03    9.9999913E-25
  2.2000000E-03    9.9999923E-25
  2.2350000E-03    1.0000011E-24
  2.2700001E-03    1.0000037E-24
  2.3050001E-03    1.0000006E-24
  2.3399999E-03    9.9999765E-25
  2.3749999E-03    1.0000001E-24
  2.4100000E-03    1.0000016E-24
  2.4450000E-03    9.9999874E-25
  2.4800000E-03    9.9999963E-25
  2.5150001E-03    1.0000016E-24
  2.5500001E-03    9.9999933E-25
  2.5849999E-03    9.9999854E-25
  2.6199999E-03    1.0000011E-24
  2.6550000E-03    1.0000006E-24
  2.6900000E-03    9.9999854E-25
  2.7250000E-03    9.9999953E-25
  2.7600001E-03    1.0000009E-24
  2.7950001E-03    1.0000015E-24
  2.8299999E-03    1.0000022E-24
  2.8649999E-03    1.0000003E-24
  2.9000000E-03    9.9999785E-25
  2.9350000E-03    9.9999903E-25
  2.9700000E-03    9.9999972E-25
  3.0050001E-03    1.0000001E-24
  3.0400001E-03    1.0000031E-24
  3.0749999E-03    1.0000018E-24
  3.1099999E-03    9.9999647E-25
  3.1450000E-03    9.9999795E-25
  3.1800000E-03    1.0000017E-24
  3.2150000E-03    9.9999943E-25
  3.2500001E-03    9.9999933E-25
  3.2850001E-03    1.0000036E-24
  3.3199999E-03    1.0000012E-24
  3.3549999E-03    9.9999706E-25
  3.3900000E-03    1.0000008E-24
  3.4250000E-03    1.0000041E-24
  3.4600000E-03    1.0000009E-24
  3.4950001E-03    9.9999815E-25
  3.5300001E-03    9.9999844E-25
  3.5649999E-03    9.9999933E-25
  3.5999999E-03    1.0000005E-24
  3.6350000E-03    1.0000006E-24
  3.6700000E-03    1.0000004E-24
  3.7050000E-03    1.0000006E-24
  3.7400001E-03    9.9999884E-25
  3.7750001E-03    9.9999854E-25
  3.8099999E-03    1.0000018E-24
  3.8449999E-03    1.0000023E-24
  3.8800000E-03    9.9999923E-25
  3.9149998E-03    1.0000001E-24
  3.9499998E-03    1.0000016E-24
  3.9849998E-03    9.9999864E-25
  4.0199999E-03    9.9999844E-25
  4.0549999E-03    1.0000017E-24
  4.0899999E-03    1.0000005E-24
  4.1250000E-03    9.9999834E-25
  4.1600000E-03    9.9999982E-25
  4.1950000E-03    1.0000016E-24
  4.2300001E-03    1.0000013E-24
  4.2650001E-03    9.9999963E-25
  4.3000001E-03    9.9999844E-25
  4.3350002E-03    1.0000009E-24
  4.3700002E-03    1.0000016E-24
  4.4049998E-03    9.9999815E-25
  4.4399998E-03    9.9999824E-25
  4.4749998E-03    1.0000028E-24
  4.5099999E-03    1.0000027E-24
  4.5449999E-03    9.9999785E-25
  4.5799999E-03    9.9999726E-25
  4.6150000E-03    1.0000001E-24
  4.6500000E-03    9.9999992E-25
  4.6850001E-03    1.0000007E-24
  4.7200001E-03    1.0000030E-24
  4.7550001E-03    1.0000001E-24
  4.7900002E-03    9.9999686E-25
  4.8250002E-03    1.0000011E-24
  4.8600002E-03    1.0000021E-24
  4.8949998E-03    9.9999805E-25
  4.9299998E-03    9.9999982E-25
  4.9649999E-03    1.0000021E-24
  4.9999999E-03    9.9999775E-25
  5.0349999E-03    9.9999765E-25
  5.0700000E-03    1.0000025E-24
  5.1050000E-03    1.0000015E-24
  5.1400000E-03    1.0000003E-24
  5.1750001E-03    1.0000020E-24
  5.2100001E-03    9.9999893E-25
  5.2450001E-03    9.9999746E-25
  5.2800002E-03    1.0000028E-24
  5.3150002E-03    1.0000026E-24
  5.3500002E-03    9.9999864E-25
  5.3849998E-03    1.0000017E-24
  5.4199998E-03    1.0000012E-24
  5.4549999E-03    9.9999519E-25
  5.4899999E-03    9.9999864E-25
  5.5249999E-03    1.0000057E-24
  5.5600000E-03    1.0000011E-24
  5.5950000E-03    9.9999578E-25
  5.6300000E-03    9.9999953E-25
  5.6650001E-03    1.0000015E-24
  5.7000001E-03    9.9999933E-25
  5.7350001E-03    1.0000001E-24
  5.7700002E-03    1.0000011E-24
  5.8050002E-03    9.9999903E-25
  5.8400002E-03    9.9999864E-25
  5.8749998E-03    9.9999992E-25
  5.9099998E-03    1.0000006E-24
  5.9449999E-03    1.0000019E-24
  5.9799999E-03    1.0000010E-24
  6.0149999E-03    9.9999903E-25
  6.0500000E-03    1.0000000E-24
  6.0850000E-03    1.0000008E-24
  6.1200000E-03    9.9999736E-25
  6.1550001E-03    9.9999795E-25
  6.1900001E-03    1.0000034E-24
  6.2250001E-03    1.0000030E-24
  6.2600002E-03    9.9999824E-25
  6.2950002E-03    9.9999923E-25
  6.3299998E-03    1.0000014E-24
  6.3649998E-03    9.9999992E-25
  6.3999998E-03    9.9999963E-25
  6.4349999E-03    1.0000008E-24
  6.4699999E-03    9.9999963E-25
  6.5049999E-03    1.0000010E-24
  6.5400000E-03    1.0000024E-24
  6.5750000E-03    9.9999834E-25
  6.6100000E-03    9.9999746E-25
  6.6450001E-03    1.0000016E-24
  6.6800001E-03    1.0000008E-24
  6.7150001E-03    9.9999874E-25
  6.7500002E-03    1.0000018E-24
  6.7850002E-03    1.0000016E-24
  6.8199998E-03    9.9999785E-25
  6.8549998E-03    9.9999992E-25
  6.8899998E-03    1.0000017E-24
  6.9249999E-03    9.9999765E-25
  6.9599999E-03    9.9999864E-25
  6.9949999E-03    1.0000047E-24
  7.0300000E-03    1.0000019E-24
  7.0650000E-03    9.9999538E-25
  7.1000000E-03    9.9999854E-25
  7.1350001E-03    1.0000043E-24
  7.1700001E-03    1.0000026E-24
  7.2050001E-03    9.9999972E-25
  7.2400002E-03    9.9999953E-25
  7.2750002E-03    9.9999893E-25
  7.3099998E-03    9.9999893E-25
  7.3449998E-03    1.0000005E-24
  7.3799998E-03    1.0000002E-24
  7.4149999E-03    1.0000000E-24
  7.4499999E-03    1.0000012E-24
  7.4850000E-03    9.9999943E-25
  7.5200000E-03    9.9999834E-25
  7.5550000E-03    1.0000009E-24
  7.5900001E-03    1.0000011E-24
  7.6250001E-03    9.9999854E-25
  7.6600001E-03    1.0000003E-24
  7.6950002E-03    1.0000019E-24
  7.7300002E-03    9.9999824E-25
  7.7650002E-03    9.9999785E-25
  7.7999998E-03    1.0000035E-24
  7.8349998E-03    1.0000024E-24
  7.8699999E-03    9.9999657E-25
  7.9049999E-03    9.9999943E-25
  7.9399999E-03    1.0000045E-24
  7.9750000E-03    1.0000003E-24
  8.0100000E-03    9.9999716E-25
  8.0450000E-03    1.0000002E-24
  8.0800001E-03    1.0000013E-24
  8.1150001E-03    1.0000008E-24
  8.1500001E-03    1.0000015E-24
  8.1850002E-03    9.9999943E-25
  8.2200002E-03    9.9999933E-25
  8.2550002E-03    1.0000016E-24
  8.2900003E-03    9.9999746E-25
  8.3250003E-03    9.9999617E-25
  8.3600003E-03    1.0000048E-24
  8.3950004E-03    1.0000039E-24
  8.4300004E-03    9.9999479E-25
  8.4650004E-03    1.0000004E-24
  8.5000005E-03    1.0000056E-24
  8.5349996E-03    9.9999529E-25
  8.5699996E-03    9.9999450E-25
  8.6049996E-03    1.0000068E-24
  8.6399997E-03    1.0000049E-24
  8.6749997E-03    9.9999460E-25
  8.7099997E-03    9.9999795E-25
  8.7449998E-03    1.0000049E-24
  8.7799998E-03    1.0000010E-24
  8.8149998E-03    9.9999617E-25
  8.8499999E-03    9.9999884E-25
  8.8849999E-03    1.0000012E-24
  8.9199999E-03    1.0000001E-24
  8.9550000E-03    1.0000005E-24
  8.9900000E-03    1.0000014E-24
  9.0250000E-03    1.0000012E-24
  9.0600001E-03    1.0000008E-24
  9.0950001E-03    9.9999972E-25
  9.1300001E-03    9.9999923E-25
  9.1650002E-03    1.0000011E-24
  9.2000002E-03    9.9999992E-25
  9.2350002E-03    9.9999627E-25
  9.2700003E-03    9.9999893E-25
  9.3050003E-03    1.0000034E-24
  9.3400003E-03    1.0000005E-24
  9.3750004E-03    9.9999824E-25
  9.4100004E-03    1.0000016E-24
  9.4450004E-03    1.0000013E-24
  9.4799995E-03    9.9999677E-25
  9.5149996E-03    9.9999844E-25
  9.5499996E-03    1.0000033E-24
  9.5849996E-03    1.0000022E-24
  9.6199997E-03    9.9999746E-25
  9.6549997E-03    9.9999992E-25
  9.6899997E-03    1.0000053E-24
  9.7249998E-03    1.0000011E-24
  9.7599998E-03    9.9999568E-25
  9.7949998E-03    1.0000013E-24
  9.8299999E-03    1.0000042E-24
  9.8649999E-03    9.9999736E-25
  9.8999999E-03    9.9999834E-25
  9.9350000E-03    1.0000032E-24
  9.9700000E-03    9.9999844E-25
  1.0005000E-02    9.9999706E-25
  1.0040000E-02    1.0000015E-24
  1.0075000E-02    9.9999933E-25
  1.0110000E-02    9.9999884E-25
  1.0145000E-02    1.0000029E-24
  1.0180000E-02    9.9999933E-25
  1.0215000E-02    9.9999943E-25
  1.0250000E-02    1.0000048E-24
  1.0285000E-02    9.9999893E-25
  1.0320000E-02    9.9999420E-25
  1.0355000E-02    1.0000027E-24
  1.0390000E-02    1.0000053E-24
  1.0425000E-02    9.9999893E-25
  1.0460000E-02    9.9999933E-25
  1.0495000E-02    9.9999992E-25
  1.0530000E-02    9.9999686E-25
  1.0565000E-02    1.0000012E-24
  1.0600000E-02    1.0000053E-24
  1.0635000E-02    9.9999805E-25
  1.0670000E-02    9.9999391E-25
  1.0705000E-02    1.0000037E-24
  1.0740000E-02    1.0000074E-24
  1.0775000E-02    9.9999637E-25
  1.0810000E-02    9.9999124E-25
  1.0845000E-02    1.0000015E-24
  1.0880000E-02    1.0000117E-24
  1.0915000E-02    1.0000049E-24
  1.0950000E-02    9.9998355E-25
  1.0985000E-02    9.9998197E-25
  1.1020000E-02    1.0000232E-24
  1.1055000E-02    1.0000398E-24
  1.1090000E-02    9.9997369E-25
  1.1125000E-02    9.9993366E-25
  1.1160000E-02    1.0000243E-24
  1.1195000E-02    1.0001021E-24
  1.1230000E-02    9.9999499E-25
  1.1265000E-02    9.9985586E-25
  1.1300000E-02    9.9996127E-25
  1.1335000E-02    1.0001960E-24
  1.1370000E-02    1.0001258E-24
  1.1405000E-02    9.9975587E-25
  1.1440000E-02    9.9972658E-25
  1.1475000E-02    1.0002627E-24
  1.1510000E-02    1.0004934E-24
  1.1545000E-02    9.9978683E-25
  1.1580000E-02    9.9920524E-25
  1.1615000E-02    1.0000324E-24
  1.1650000E-02    1.0011668E-24
  1.1685000E-02    1.0003637E-24
  1.1720000E-02    9.9843334E-25
  1.1755000E-02    9.9891701E-25
  1.1790000E-02    1.0018890E-24
  1.1825000E-02    1.0022424E-24
  1.1860000E-02    9.9806110E-25
  1.1895000E-02    9.9605749E-25
  1.1930000E-02    1.0013923E-24
  1.1965000E-02    1.0062050E-24
  1.2000000E-02    1.0002228E-24
  1.2035000E-02    9.9111833E-25
  1.2070000E-02    9.9645291E-25
  1.2105000E-02    1.0115185E-24
  1.2140000E-02    1.0093198E-24
  1.2175000E-02    9.8680228E-25
  1.2210000E-02    9.8174529E-25
  1.2245000E-02    1.0123178E-24
  1.2280000E-02    1.0307953E-24
  1.2315000E-02    9.9363273E-25
  1.2350000E-02    9.5343346E-25
  1.2385000E-02    9.9197583E-25
  1.2420000E-02    1.0639017E-24
  1.2455000E-02    1.0351588E-24
  1.2490000E-02    9.2132209E-25
  1.2525000E-02    9.2039676E-25
  1.2560000E-02    1.0832041E-24
  1.2595000E-02    1.1448297E-24
  1.2630000E-02    9.3468056E-25
  1.2665000E-02    7.6859428E-25
  1.2700000E-02    1.0073647E-24
  1.2735000E-02    1.3333703E-24
  1.2770000E-02    1.1134406E-24
  1.2805000E-02    5.6631383E-25
  1.2840000E-02    6.7683778E-25
  1.2875000E-02    1.4980785E-24
  1.2910000E-02    1.6453904E-24
  1.2945000E-02    5.3036622E-25
  1.2980000E-02   -9.2693424E-26
  1.3015000E-02    1.2623428E-24
  1.3050000E-02    2.6498798E-24
  1.3085000E-02    1.2387612E-24
  1.3120000E-02   -1.2521702E-24
  1.3155000E-02   -1.7215860E-25
  1.3190000E-02    3.7564483E-24
  1.3225000E-02    3.6778364E-24
  1.3260000E-02   -1.9087282E-24
  1.3295000E-02   -3.8564333E-24
  1.3330000E-02    3.3159717E-24
  1.3365000E-02    8.7026291E-24
  1.3400000E-02    5.7178517E-25
  1.3435000E-02   -1.0000656E-23
  1.3470000E-02   -2.4388217E-24
  1.3505000E-02    1.5195447E-23
  1.3540000E-02    1.1032815E-23
  1.3575000E-02   -1.5231893E-23
  1.3610000E-02   -1.8996089E-23
  1.3645000E-02    1.6402425E-23
  1.3680000E-02    3.4585006E-23
  1.3715000E-02   -8.2495610E-24
  1.3750000E-02   -4.9239439E-23
  1.3785000E-02   -4.4191810E-24
  1.3820000E-02    6.8978660E-23
  1.3855000E-02    3.3256650E-23
  1.3890000E-02   -8.1713135E-23
  1.3925000E-02   -7.3806255E-23
  1.3960000E-02    8.8498285E-23
  1.3995000E-02    1.3633655E-22
  1.4030000E-02   -7.0951860E-23
  1.4065000E-02   -2.1207158E-22
  1.4100000E-02    2.3161595E-23
  1.4135000E-02    3.0275267E-22
  1.4170000E-02    7.9593169E-23
  1.4205000E-02   -3.8567432E-22
  1.4240000E-02   -2.4663927E-22
  1.4275000E-02    4.4228268E-22
  1.4310000E-02    4.9975714E-22
  1.4345000E-02   -4.2333565E-22
  1.4380000E-02   -8.3421791E-22
  1.4415000E-02    2.7973614E-22
  1.4450000E-02    1.2412624E-21
  1.4485000E-02    6.7749798E-23
  1.4520000E-02   -1.6636579E-21
  1.4555000E-02   -6.8892715E-22
  1.4590000E-02    2.0140846E-21
  1.4625000E-02    1.6614022E-21
  1.4660000E-02   -2.1303778E-21
  1.4695000E-02   -3.0134004E-21
  1.4730000E-02    1.7994850E-21
  1.4765000E-02    4.7194196E-21
  1.4800000E-02   -7.2898644E-22
  1.4835000E-02   -6.6202843E-21
  1.4870000E-02   -1.3966998E-21
  1.4905000E-02    8.4024651E-21
  1.4940000E-02    4.8984396E-21
  1.4975000E-02   -9.5112959E-21
  1.5010000E-02   -9.9806215E-21
  1.5045000E-02    9.1458517E-21
  1.5080000E-02    1.6634027E-20
  1.5115000E-02   -6.2314989E-21
  1.5150000E-02   -2.4427711E-20
  1.5185000E-02   -4.8052989E-22
  1.5220000E-02    3.2341870E-20
  1.5255000E-02    1.2276578E-20
  1.5290000E-02   -3.8529394E-20
  1.5325000E-02   -3.0148336E-20
  1.5360000E-02    4.0202131E-20
  1.5395000E-02    5.4375338E-20
  1.5430000E-02   -3.3565303E-20
  1.5465000E-02   -8.3886383E-20
  1.5500000E-02    1.4048466E-20
  1.5535000E-02    1.1557997E-19
  1.5570000E-02    2.3188653E-20
  1.5605000E-02   -1.4356078E-19
  1.5640000E-02   -8.2241062E-20
  1.5675001E-02    1.5860259E-19
  1.5710000E-02    1.6499779E-19
  1.5745001E-02   -1.4794576E-19
  1.5780000E-02   -2.6910230E-19
  1.5814999E-02    9.5895365E-20
  1.5850000E-02    3.8559133E-19
  1.5884999E-02    1.4537166E-20
  1.5920000E-02   -4.9643544E-19
  1.5954999E-02   -1.9858204E-19
  1.5990000E-02    5.7250654E-19
  1.6024999E-02    4.6488512E-19
  1.6060000E-02   -5.7298636E-19
  1.6094999E-02   -8.0918706E-19
  1.6130000E-02    4.4688903E-19
  1.6164999E-02    1.2066115E-18
  1.6200000E-02   -1.3812430E-19
  1.6235000E-02   -1.6039780E-18
  1.6270000E-02   -4.0520836E-19
  1.6305000E-02    1.9134644E-18
  1.6340001E-02    1.2160373E-18
  1.6375000E-02   -2.0101934E-18
  1.6410001E-02   -2.2889949E-18
  1.6445000E-02    1.7370739E-18
  1.6480001E-02    3.5570979E-18
  1.6515000E-02   -9.1961650E-19
  1.6550001E-02   -4.8690109E-18
  1.6585000E-02   -6.0613081E-19
  1.6620001E-02    5.9701558E-18
  1.6655000E-02    2.9507536E-18
  1.6690001E-02   -6.4955263E-18
  1.6725000E-02   -6.1141481E-18
  1.6759999E-02    5.9848378E-18
  1.6795000E-02    9.9201595E-18
  1.6829999E-02   -3.9251788E-18
  1.6865000E-02   -1.3950201E-17
  1.6899999E-02   -1.6843220E-19
  1.6935000E-02    1.7492984E-17
  1.6969999E-02    6.6300706E-18
  1.7005000E-02   -1.9528369E-17
  1.7039999E-02   -1.5485946E-17
  1.7075000E-02    1.8770414E-17
  1.7109999E-02    2.6273551E-17
  1.7145000E-02   -1.3792826E-17
  1.7180000E-02   -3.7867998E-17
  1.7215000E-02    3.2519990E-18
  1.7250000E-02    4.8350848E-17
  1.7285001E-02    1.3775166E-17
  1.7320000E-02   -5.4987179E-17
  1.7355001E-02   -3.7378224E-17
  1.7390000E-02    5.4355967E-17
  1.7425001E-02    6.6344445E-17
  1.7460000E-02   -4.2694722E-17
  1.7495001E-02   -9.7717539E-17
  1.7530000E-02    1.6519664E-17
  1.7565001E-02    1.2650969E-16
  1.7600000E-02    2.6516095E-17
  1.7635001E-02   -1.4567277E-16
  1.7670000E-02   -8.6546352E-17
  1.7704999E-02    1.4652930E-16
  1.7740000E-02    1.6037650E-16
  1.7774999E-02   -1.1969486E-16
  1.7810000E-02   -2.4042220E-16
  1.7844999E-02    5.6698791E-17
  1.7880000E-02    3.1414401E-16
  1.7914999E-02    4.7880324E-17
  1.7950000E-02   -3.6415775E-16
  1.7984999E-02   -1.9384242E-16
  1.8020000E-02    3.6946068E-16
  1.8054999E-02    3.7269233E-16
  1.8090000E-02   -3.0794055E-16
  1.8124999E-02   -5.6547131E-16
  1.8160000E-02    1.6034719E-16
  1.8195000E-02    7.4174035E-16
  1.8230001E-02    8.4576478E-17
  1.8265000E-02   -8.6041480E-16
  1.8300001E-02   -4.2416059E-16
  1.8335000E-02    8.7317657E-16
  1.8370001E-02    8.3612650E-16
  1.8405000E-02   -7.3086481E-16
  1.8440001E-02   -1.2742351E-15
  1.8475000E-02    3.9305550E-16
  1.8510001E-02    1.6672910E-15
  1.8545000E-02    1.6049852E-16
  1.8580001E-02   -1.9221880E-15
  1.8615000E-02   -9.1651548E-16
  1.8650001E-02    1.9337697E-15
  1.8685000E-02    1.8176315E-15
  1.8719999E-02   -1.5997439E-15
  1.8755000E-02   -2.7545554E-15
  1.8789999E-02    8.4271160E-16
  1.8825000E-02    3.5670883E-15
  1.8859999E-02    3.6476849E-16
  1.8895000E-02   -4.0548666E-15
  1.8929999E-02   -1.9743343E-15
  1.8965000E-02    4.0011397E-15
  1.8999999E-02    3.8416815E-15
  1.9035000E-02   -3.2093701E-15
  1.9069999E-02   -5.7175639E-15
  1.9105000E-02    1.5494228E-15
  1.9140000E-02    7.2567134E-15
  1.9175000E-02    9.9097603E-16
  1.9210000E-02   -8.0498649E-15
  1.9245001E-02   -4.2590477E-15
  1.9280000E-02    7.6813369E-15
  1.9315001E-02    7.9065977E-15
  1.9350000E-02   -5.8084293E-15
  1.9385001E-02   -1.1386980E-14
  1.9420000E-02    2.2574766E-15
  1.9455001E-02    1.3992740E-14
  1.9490000E-02    2.8821624E-15
  1.9525001E-02   -1.4939088E-14
  1.9560000E-02   -9.1810181E-15
  1.9595001E-02    1.3493464E-14
  1.9630000E-02    1.5836662E-14
  1.9664999E-02   -9.1430134E-15
  1.9700000E-02   -2.1707208E-14
  1.9734999E-02    1.7729680E-15
  1.9770000E-02    2.5426035E-14
  1.9804999E-02    8.1762803E-15
  1.9840000E-02   -2.5599880E-14
  1.9874999E-02   -1.9606956E-14
  1.9910000E-02    2.1088427E-14
  1.9944999E-02    3.0773418E-14
  1.9980000E-02   -1.1319341E-14
  2.0014999E-02   -3.9424047E-14
  2.0050000E-02   -3.4041132E-15
  2.0085000E-02    4.3102007E-14
  2.0120000E-02    2.1684443E-14
  2.0155000E-02   -3.9582626E-14
  2.0190001E-02   -4.0957343E-14
  2.0225000E-02    2.7420129E-14
  2.0260001E-02    5.7663672E-14
  2.0295000E-02   -6.4918278E-15
  2.0330001E-02   -6.7671346E-14
  2.0365000E-02   -2.1553639E-14
  2.0400001E-02    6.6959242E-14
  2.0435000E-02    5.3074593E-14
  2.0470001E-02   -5.2517425E-14
  2.0505000E-02   -8.2596649E-14
  2.0540001E-02    2.3279864E-14
  2.0575000E-02    1.0338717E-13
  2.0609999E-02    1.9025287E-14
  2.0645000E-02   -1.0850972E-13
  2.0679999E-02   -6.9391182E-14
  2.0715000E-02    9.2231520E-14
  2.0749999E-02    1.1957898E-13
  2.0785000E-02   -5.1617493E-14
  2.0819999E-02   -1.5889044E-13
  2.0855000E-02   -1.1987970E-14
  2.0889999E-02    1.7571724E-13
  2.0925000E-02    9.1967029E-14
  2.0959999E-02   -1.5971652E-13
  2.0995000E-02   -1.7624986E-13
  2.1029999E-02    1.0439570E-13
  2.1065000E-02    2.4824083E-13
  2.1100000E-02   -9.6234454E-15
  2.1135001E-02   -2.8900764E-13
  2.1170000E-02   -1.1647282E-13
  2.1205001E-02    2.8059434E-13
  2.1240000E-02    2.5685002E-13
  2.1275001E-02   -2.1005238E-13
  2.1310000E-02   -3.8656396E-13
  2.1345001E-02    7.3533668E-14
  2.1380000E-02    4.7571831E-13
  2.1415001E-02    1.2038214E-13
  2.1450000E-02   -4.9425671E-13
  2.1485001E-02   -3.4904024E-13
  2.1520000E-02    4.1804331E-13
  2.1555001E-02    5.7656158E-13
  2.1590000E-02   -2.3533291E-13
  2.1624999E-02   -7.5763186E-13
  2.1660000E-02   -4.7683954E-14
  2.1694999E-02    8.4409910E-13
  2.1730000E-02    4.0359570E-13
  2.1764999E-02   -7.9380800E-13
  2.1800000E-02   -7.8396366E-13
  2.1834999E-02    5.8020662E-13
  2.1870000E-02    1.1236715E-12
  2.1904999E-02   -2.0125279E-13
  2.1940000E-02   -1.3496844E-12
  2.1974999E-02   -3.1475782E-13
  2.2010000E-02    1.3930133E-12
  2.2045000E-02    9.0780443E-13
  2.2080000E-02   -1.2025980E-12
  2.2115000E-02   -1.4906865E-12
  2.2150001E-02    7.5834413E-13
  2.2185000E-02    1.9594751E-12
  2.2220001E-02   -8.1042994E-14
  2.2255000E-02   -2.2091647E-12
  2.2290001E-02   -7.6359936E-13
  2.2325000E-02    2.1523358E-12
  2.2360001E-02    1.6685946E-12
  2.2395000E-02   -1.7375560E-12
  2.2430001E-02   -2.4972841E-12
  2.2465000E-02    9.6444651E-13
  2.2500001E-02    3.1022210E-12
  2.2535000E-02    1.0822388E-13
  2.2569999E-02   -3.3485849E-12
  2.2605000E-02   -1.3636362E-12
  2.2639999E-02    3.1386848E-12
  2.2675000E-02    2.6382867E-12
  2.2709999E-02   -2.4332619E-12
  2.2745000E-02   -3.7430163E-12
  2.2779999E-02    1.2649908E-12
  2.2815000E-02    4.4904219E-12
  2.2849999E-02    2.5826354E-13
  2.2885000E-02   -4.7251985E-12
  2.2919999E-02   -1.9627002E-12
  2.2955000E-02    4.3518839E-12
  2.2990000E-02    3.6296532E-12
  2.3025000E-02   -3.3552397E-12
  2.3060000E-02   -5.0256761E-12
  2.3095001E-02    1.8089627E-12
  2.3130000E-02    5.9371809E-12
  2.3165001E-02    1.2912630E-13
  2.3200000E-02   -6.2044866E-12
  2.3235001E-02   -2.2363730E-12
  2.3270000E-02    5.7485123E-12
  2.3305001E-02    4.2555239E-12
  2.3340000E-02   -4.5862892E-12
  2.3375001E-02   -5.9324832E-12
  2.3410000E-02    2.8309059E-12
  2.3445001E-02    7.0547075E-12
  2.3480000E-02   -6.7571529E-13
  2.3514999E-02   -7.4836040E-12
  2.3550000E-02   -1.6355176E-12
  2.3584999E-02    7.1749690E-12
  2.3620000E-02    3.8477307E-12
  2.3654999E-02   -6.1827488E-12
  2.3690000E-02   -5.7361928E-12
  2.3724999E-02    4.6442646E-12
  2.3760000E-02    7.1416887E-12
  2.3794999E-02   -2.7494628E-12
  2.3830000E-02   -7.9927263E-12
  2.3864999E-02    6.9816169E-13
  2.3900000E-02    8.3071354E-12
  2.3934999E-02    1.3440891E-12
  2.3970000E-02   -8.1717810E-12
  2.4005000E-02   -3.2823106E-12
  2.4040001E-02    7.7017628E-12
  2.4075000E-02    5.1083317E-12
  2.4110001E-02   -6.9881379E-12
  2.4145000E-02   -6.8899673E-12
  2.4180001E-02    6.0463934E-12
  2.4215000E-02    8.7304651E-12
  2.4250001E-02   -4.7808537E-12
  2.4285000E-02   -1.0701626E-11
  2.4320001E-02    2.9821085E-12
  2.4355000E-02    1.2765844E-11
  2.4390001E-02   -3.6683208E-13
  2.4425000E-02   -1.4706372E-11
  2.4460001E-02   -3.3376457E-12
  2.4495000E-02    1.6090962E-11
  2.4529999E-02    8.2746449E-12
  2.4565000E-02   -1.6291623E-11
  2.4599999E-02   -1.4329447E-11
  2.4635000E-02    1.4572963E-11
  2.4669999E-02    2.1022701E-11
  2.4705000E-02   -1.0249669E-11
  2.4739999E-02   -2.7464864E-11
  2.4775000E-02    2.8919026E-12
  2.4809999E-02    3.2404194E-11
  2.4845000E-02    7.4612599E-12
  2.4879999E-02   -3.4384457E-11
  2.4915000E-02   -2.0132854E-11
  2.4950000E-02    3.2005589E-11
  2.4985000E-02    3.3738654E-11
  2.5020000E-02   -2.4252399E-11
  2.5055001E-02   -4.6263333E-11
  2.5090000E-02    1.0828745E-11
  2.5125001E-02    5.5300878E-11
  2.5160000E-02    7.5800182E-12
  2.5195001E-02   -5.8443028E-11
  2.5230000E-02   -2.9193797E-11
  2.5265001E-02    5.3761391E-11
  2.5300000E-02    5.1233486E-11
  2.5335001E-02   -4.0292592E-11
  2.5370000E-02   -7.0244359E-11
  2.5405001E-02    1.8421776E-11
  2.5440000E-02    8.2620216E-11
  2.5474999E-02    9.9364579E-12
  2.5510000E-02   -8.5250501E-11
  2.5544999E-02   -4.1432434E-11
  2.5580000E-02    7.6171500E-11
  2.5614999E-02    7.1669698E-11
  2.5650000E-02   -5.5090158E-11
  2.5684999E-02   -9.5848225E-11
  2.5720000E-02    2.3655385E-11
  2.5754999E-02    1.0956151E-10
  2.5790000E-02    1.4602529E-11
  2.5824999E-02   -1.0960648E-10
  2.5860000E-02   -5.4685530E-11
  2.5895000E-02    9.4650336E-11
  2.5930000E-02    9.0844242E-11
  2.5965000E-02   -6.5615603E-11
  2.6000001E-02   -1.1748277E-10
  2.6035000E-02    2.5694048E-11
  2.6070001E-02    1.3009663E-10
  2.6105000E-02    2.0034420E-11
  2.6140001E-02   -1.2607325E-10
  2.6175000E-02   -6.5325197E-11
  2.6210001E-02    1.0520834E-10
  2.6245000E-02    1.0371921E-10
  2.6280001E-02   -6.9839891E-11
  2.6315000E-02   -1.2956435E-10
  2.6350001E-02    2.4564507E-11
  2.6385000E-02    1.3893407E-10
  2.6419999E-02    2.4422159E-11
  2.6455000E-02   -1.3029013E-10
  2.6489999E-02   -7.0261588E-11
  2.6525000E-02    1.0477467E-10
  2.6559999E-02    1.0649694E-10
  2.6595000E-02   -6.6077692E-11
  2.6629999E-02   -1.2809892E-10
  2.6665000E-02    1.9887628E-11
  2.6699999E-02    1.3228302E-10
  2.6735000E-02    2.6996230E-11
  2.6769999E-02   -1.1898151E-10
  2.6805000E-02   -6.7761290E-11
  2.6839999E-02    9.0872303E-11
  2.6875000E-02    9.6712145E-11
  2.6910000E-02   -5.2939420E-11
  2.6945001E-02   -1.1024360E-10
  2.6980000E-02    1.1611429E-11