 -4.8000002E-03    1.0000000E-24
 -4.7650002E-03    1.0000002E-24
 -4.7300002E-03    1.0000001E-24
 -4.6950001E-03    1.0000000E-24
 -4.6600001E-03    1.0000002E-24
 -4.6250001E-03    1.0000003E-24
 -4.5900000E-03    1.0000001E-24
 -4.5550000E-03    1.0000001E-24
 -4.5200000E-03    1.0000003E-24
 -4.4849999E-03    1.0000000E-24
 -4.4499999E-03    9.9999982E-25
 -4.4149999E-03    1.0000003E-24
 -4.3799998E-03    1.0000004E-24
 -4.3449998E-03    9.9999972E-25
 -4.3100002E-03    1.0000000E-24
 -4.2750002E-03    1.0000005E-24
 -4.2400002E-03    1.0000003E-24
 -4.2050001E-03    9.9999982E-25
 -4.1700001E-03    1.0000003E-24
 -4.1350001E-03    1.0000004E-24
 -4.1000000E-03    9.9999972E-25
 -4.0650000E-03    9.9999953E-25
 -4.0300000E-03    1.0000017E-24
 -3.9949999E-03    9.9999105E-25
 -3.9599999E-03    9.9998552E-25
 -3.9249999E-03    1.0003474E-24
 -3.8900001E-03    9.9879168E-25
 -3.8550000E-03    9.9897588E-25
 -3.8200000E-03    1.0182004E-24
 -3.7849999E-03    9.5958007E-25
 -3.7499999E-03    9.4251868E-25
 -3.7150001E-03    1.4645872E-24
 -3.6800001E-03    3.1581738E-25
 -3.6450000E-03   -6.9374149E-25
 -3.6100000E-03    9.4054726E-24
 -3.5750000E-03   -5.0664698E-24
 -3.5399999E-03   -4.0786835E-23
 -3.5049999E-03    1.0677408E-22
 -3.4700001E-03    7.7630319E-23
 -3.4350001E-03   -6.4898993E-22
 -3.4000000E-03    3.9905911E-22
 -3.3650000E-03    2.4853976E-21
 -3.3300000E-03   -4.0763521E-21
 -3.2949999E-03   -5.9767063E-21
 -3.2599999E-03    1.9786986E-20
 -3.2250001E-03    4.7224848E-21
 -3.1900001E-03   -6.6687088E-20
 -3.1550000E-03    3.3812336E-20
 -3.1200000E-03    1.6603015E-19
 -3.0850000E-03   -2.0494260E-19
 -3.0499999E-03   -2.8816018E-19
 -3.0149999E-03    6.9799635E-19
 -2.9800001E-03    2.1079676E-19
 -2.9450001E-03   -1.7329294E-18
 -2.9100000E-03    7.1275579E-19
 -2.8750000E-03    3.2261878E-18
 -2.8400000E-03   -3.7178828E-18
 -2.8049999E-03   -3.9958118E-18
 -2.7699999E-03    1.0294687E-17
 -2.7350001E-03    5.4757392E-19
 -2.7000001E-03   -2.0722385E-17
 -2.6650000E-03    1.3903771E-17
 -2.6300000E-03    3.1126588E-17
 -2.5950000E-03   -4.8681376E-17
 -2.5599999E-03   -2.9922028E-17
 -2.5249999E-03    1.1128815E-16
 -2.4900001E-03   -3.5227195E-18
 -2.4550001E-03   -1.9885266E-16
 -2.4200000E-03    9.3853401E-17
 -2.3850000E-03    2.8868500E-16
 -2.3500000E-03   -2.5622032E-16
 -2.3149999E-03   -3.3698412E-16
 -2.2799999E-03    4.7974400E-16
 -2.2450001E-03    2.9823368E-16
 -2.2100001E-03   -7.2483166E-16
 -2.1750000E-03   -1.7167611E-16
 -2.1400000E-03    9.5847061E-16
 -2.1050000E-03    5.8779904E-17
 -2.0699999E-03   -1.2430045E-15
 -2.0349999E-03   -1.7969265E-16
 -2.0000001E-03    1.8630193E-15
 -1.9650001E-03    7.6814977E-16
 -1.9300000E-03   -3.4309584E-15
 -1.8950000E-03   -1.7764379E-15
 -1.8600000E-03    6.8836966E-15
 -1.8250000E-03    2.3976040E-15
 -1.7900000E-03   -1.3308013E-14
 -1.7550000E-03   -5.4377652E-16
 -1.7199999E-03    2.3619610E-14
 -1.6850000E-03   -7.4310793E-15
 -1.6500000E-03   -3.8182395E-14
 -1.6150000E-03    2.6404773E-14
 -1.5800000E-03    5.6344628E-14
 -1.5450000E-03   -6.1384254E-14
 -1.5100000E-03   -7.5627269E-14
 -1.4750001E-03    1.1598630E-13
 -1.4400000E-03    9.0313607E-14
 -1.4050000E-03   -1.9137331E-13
 -1.3700000E-03   -8.9690238E-14
 -1.3350000E-03    2.8645242E-13
 -1.3000000E-03    5.6764624E-14
 -1.2650000E-03   -3.9963413E-13
 -1.2300001E-03    3.1353833E-14
 -1.1950000E-03    5.3177390E-13
 -1.1600000E-03   -1.9971306E-13
 -1.1250000E-03   -6.8769426E-13
 -1.0900000E-03    4.6793331E-13
 -1.0550000E-03    8.7011496E-13
 -1.0200000E-03   -8.4491621E-13
 -9.8500005E-04   -1.0630119E-12
 -9.5000002E-04    1.3377618E-12
 -9.1499998E-04    1.2165209E-12
 -8.8000001E-04   -1.9744143E-12
 -8.4499997E-04   -1.2519812E-12
 -8.1000000E-04    2.8168143E-12
 -7.7500002E-04    1.0826481E-12
 -7.3999999E-04   -3.9521038E-12
 -7.0500001E-04   -6.3205506E-13
 -6.6999998E-04    5.4850998E-12
 -6.3500000E-04   -1.3009793E-13
 -6.0000003E-04   -7.5238904E-12
 -5.6499999E-04    1.1202981E-12
 -5.3000002E-04    1.0085390E-11
 -4.9499999E-04   -2.1568331E-12
 -4.6000001E-04   -1.2962169E-11
 -4.2500001E-04    3.1722027E-12
 -3.9000000E-04    1.5785945E-11
 -3.5500000E-04   -4.3996820E-12
 -3.1999999E-04   -1.8295032E-11
 -2.8499999E-04    6.2070548E-12
 -2.5000001E-04    2.0363992E-11
 -2.1499999E-04   -8.8453429E-12
 -1.8000000E-04   -2.1702950E-11
 -1.4500000E-04    1.2600058E-11
 -1.1000000E-04    2.1862959E-11
 -7.5000004E-05   -1.7917662E-11
 -3.9999999E-05   -2.0505602E-11
 -4.9999999E-06    2.5047520E-11
  2.9999999E-05    1.6945197E-11
  6.5000000E-05   -3.4385505E-11
  9.9999997E-05   -9.6996881E-12
  1.3499999E-04    4.8020497E-11
  1.7000000E-04   -1.8002937E-12
  2.0500000E-04   -6.9634611E-11
  2.3999999E-04    1.4856205E-11
  2.7500000E-04    1.0146286E-10
  3.1000000E-04   -2.4297491E-11
  3.4500001E-04   -1.4239432E-10
  3.8000001E-04    2.4620974E-11
  4.1499999E-04    1.8829870E-10
  4.4999999E-04   -1.0379287E-11
  4.8500000E-04   -2.3004706E-10
  5.2000000E-04   -1.9922888E-11
  5.5499998E-04    2.5326832E-10
  5.9000001E-04    5.5794418E-11
  6.2499999E-04   -2.4854752E-10
  6.6000002E-04   -7.7346241E-11
  6.9500000E-04    2.2070630E-10
  7.3000003E-04    6.9929472E-11
  7.6500000E-04   -1.8143886E-10
  7.9999998E-04   -2.8486402E-11
  8.3500001E-04    1.4108911E-10
  8.6999999E-04   -4.8015075E-11
  9.0500002E-04   -1.1306816E-10
  9.4000000E-04    1.5052112E-10
  9.7499997E-04    1.0700215E-10
  1.0100000E-03   -2.6027411E-10
  1.0450000E-03   -1.1366293E-10
  1.0800000E-03    3.7468531E-10
  1.1150000E-03    1.2325925E-10
  1.1500000E-03   -5.1093468E-10
  1.1849999E-03   -1.5189248E-10
  1.2200000E-03    6.7115913E-10
  1.2550000E-03    2.2293177E-10
  1.2900000E-03   -8.3445573E-10
  1.3250000E-03   -3.4789455E-10
  1.3600000E-03    9.6799957E-10
  1.3950000E-03    5.3032223E-10
  1.4299999E-03   -1.0105813E-09
  1.4650000E-03   -7.2494588E-10
  1.5000000E-03    9.0935853E-10
  1.5350000E-03    8.1826329E-10
  1.5700000E-03   -7.0791267E-10
  1.6050000E-03   -7.2878864E-10
  1.6400000E-03    5.1243554E-10
  1.6749999E-03    4.6112791E-10
  1.7100000E-03   -4.0772175E-10
  1.7450000E-03   -5.3492141E-11
  1.7800000E-03    4.8618504E-10
  1.8150000E-03   -3.7156409E-10
  1.8500000E-03   -7.7567702E-10
  1.8850000E-03    6.2135275E-10
  1.9200000E-03    1.1030895E-09
  1.9550000E-03   -6.9550293E-10
  1.9900000E-03   -1.3195729E-09
  2.0250001E-03    7.5303236E-10
  2.0600001E-03    1.4877333E-09
  2.0949999E-03   -7.9557610E-10
  2.1299999E-03   -1.5742632E-09
  2.1650000E-03    8.7557150E-10
  2.2000000E-03    1.5328538E-09
  2.2350000E-03   -1.2071121E-09
  2.2700001E-03   -1.7102221E-09
  2.3050001E-03    1.4986293E-09
  2.3399999E-03    2.1704356E-09
  2.3749999E-03   -1.2308007E-09
  2.4100000E-03   -2.2336939E-09
  2.4450000E-03    8.0184409E-10
  2.4800000E-03    1.7765234E-09
  2.5150001E-03   -7.3912426E-10
  2.5500001E-03   -1.3761661E-09
  2.5849999E-03    6.2881883E-10
  2.6199999E-03    7.1041029E-10
  2.6550000E-03   -6.9675749E-10
  2.6900000E-03    4.1493212E-10
  2.7250000E-03    1.8471081E-09
  2.7600001E-03   -6.4938849E-10
  2.7950001E-03   -3.1317460E-09
  2.8299999E-03   -2.4873553E-10
  2.8649999E-03    3.1536873E-09
  2.9000000E-03    5.9470751E-10
  2.9350000E-03   -2.9680305E-09
  2.9700000E-03   -5.2744575E-10
  3.0050001E-03    3.1028649E-09
  3.0400001E-03    9.7912434E-10
  3.0749999E-03   -2.3352318E-09
  3.1099999E-03   -6.6465022E-10
  3.1450000E-03    1.4947267E-09
  3.1800000E-03   -6.8216033E-10
  3.2150000E-03   -2.1760058E-09
  3.2500001E-03    7.9074036E-10
  3.2850001E-03    2.5741538E-09
  3.3199999E-03   -2.5623165E-10
  3.3549999E-03   -2.0131135E-09
  3.3900000E-03    5.0823684E-10
  3.4250000E-03    1.8560248E-09
  3.4600000E-03   -6.8060552E-10
  3.4950001E-03   -1.6910929E-09
  3.5300001E-03    6.1153044E-10
  3.5649999E-03    6.0151145E-10
  3.5999999E-03   -1.9387378E-09
  3.6350000E-03   -8.6864355E-10
  3.6700000E-03    2.3194568E-09
  3.7050000E-03    1.0807866E-09
  3.7400001E-03   -2.1038800E-09
  3.7750001E-03   -9.7239528E-10
  3.8099999E-03    2.1123641E-09
  3.8449999E-03    1.5375613E-09
  3.8800000E-03   -1.7619640E-09
  3.9149998E-03   -2.7229536E-09
  3.9499998E-03   -2.6591568E-10
  3.9849998E-03    7.8211632E-10
  4.0199999E-03   -1.4165634E-09
  4.0549999E-03   -1.4277954E-09
  4.0899999E-03    1.5521213E-09
  4.1250000E-03    1.4253344E-09
  4.1600000E-03   -6.6748007E-10
  4.1950000E-03   -2.3735127E-11
  4.2300001E-03   -1.8095869E-10
  4.2650001E-03   -2.6239626E-09
  4.3000001E-03   -2.4779436E-09
  4.3350002E-03   -1.1159539E-09
  4.3700002E-03   -1.5702686E-09
  4.4049998E-03   -1.0128844E-09
  4.4399998E-03   -9.7997201E-11
  4.4749998E-03   -6.4960942E-10
  4.5099999E-03    2.4853389E-10
  4.5449999E-03    4.0069573E-10
  4.5799999E-03   -2.7951443E-09
  4.6150000E-03   -3.2366743E-09
  4.6500000E-03   -1.4298295E-09
  4.6850001E-03   -3.7241830E-09
  4.7200001E-03   -4.7193036E-09
  4.7550001E-03   -1.2876489E-09
  4.7900002E-03   -1.5180049E-09
  4.8250002E-03   -3.8064356E-09
  4.8600002E-03   -2.4187161E-09
  4.8949998E-03   -2.3417839E-09
  4.9299998E-03   -3.0931075E-09
  4.9649999E-03   -7.8215395E-10
  4.9999999E-03   -2.9523521E-09
  5.0349999E-03   -8.3770502E-09
  5.0700000E-03   -5.8940901E-09
  5.1050000E-03   -2.6907117E-09
  5.1400000E-03   -7.0597905E-09
  5.1750001E-03   -7.5359692E-09
  5.2100001E-03   -2.9257381E-09
  5.2450001E-03   -4.6648823E-09
  5.2800002E-03   -6.8728507E-09
  5.3150002E-03   -2.8208667E-09
  5.3500002E-03   -2.2130751E-09
  5.3849998E-03   -6.1709100E-09
  5.4199998E-03   -7.7158715E-09
  5.4549999E-03   -9.5875929E-09
  5.4899999E-03   -9.9816475E-09
  5.5249999E-03   -4.5474997E-09
  5.5600000E-03   -3.8499453E-09
  5.5950000E-03   -9.3090176E-09
  5.6300000E-03   -5.9001763E-09
  5.6650001E-03    4.8678012E-10
  5.7000001E-03   -4.2569392E-09
  5.7350001E-03   -7.2915460E-09
  5.7700002E-03   -1.3963253E-09
  5.8050002E-03   -2.1954902E-09
  5.8400002E-03   -7.0504576E-09
  5.8749998E-03   -3.1861622E-09
  5.9099998E-03    6.2948630E-10
  5.9449999E-03    4.6904214E-10
  5.9799999E-03    3.9483785E-09
  6.0149999E-03    4.7740190E-09
  6.0500000E-03    3.2932592E-09
  6.0850000E-03    9.9870316E-09
  6.1200000E-03    1.3172878E-08
  6.1550001E-03    7.6553208E-09
  6.1900001E-03    1.3432944E-08
  6.2250001E-03    2.3538298E-08
  6.2600002E-03    1.8091590E-08
  6.2950002E-03    1.6365972E-08
  6.3299998E-03    3.0434421E-08
  6.3649998E-03    3.7165130E-08
  6.3999998E-03    3.5530459E-08
  6.4349999E-03    4.0942961E-08
  6.4699999E-03    4.5412708E-08
  6.5049999E-03    4.6991008E-08
  6.5400000E-03    5.5622216E-08
  6.5750000E-03    6.2321959E-08
  6.6100000E-03    6.3266782E-08
  6.6450001E-03    7.1891776E-08
  6.6800001E-03    8.3251081E-08
  6.7150001E-03    8.6970822E-08
  6.7500002E-03    9.4954650E-08
  6.7850002E-03    1.0945234E-07
  6.8199998E-03    1.1305065E-07
  6.8549998E-03    1.1056064E-07
  6.8899998E-03    1.2256750E-07
  6.9249999E-03    1.3964002E-07
  6.9599999E-03    1.4156059E-07
  6.9949999E-03    1.4339335E-07
  7.0300000E-03    1.6251674E-07
  7.0650000E-03    1.7739355E-07
  7.1000000E-03    1.7655894E-07
  7.1350001E-03    1.8546459E-07
  7.1700001E-03    2.0577058E-07
  7.2050001E-03    2.1300789E-07
  7.2400002E-03    2.1509479E-07
  7.2750002E-03    2.2856992E-07
  7.3099998E-03    2.4059901E-07
  7.3449998E-03    2.4755369E-07
  7.3799998E-03    2.6078700E-07
  7.4149999E-03    2.7247935E-07
  7.4499999E-03    2.7871451E-07
  7.4850000E-03    2.9187410E-07
  7.5200000E-03    3.0503261E-07
  7.5550000E-03    3.0812984E-07
  7.5900001E-03    3.1591429E-07
  7.6250001E-03    3.2804772E-07
  7.6600001E-03    3.2394209E-07
  7.6950002E-03    3.1522481E-07
  7.7300002E-03    3.2241047E-07
  7.7650002E-03    3.2245714E-07
  7.7999998E-03    2.9795996E-07
  7.8349998E-03    2.7698223E-07
  7.8699999E-03    2.6595686E-07
  7.9049999E-03    2.3448352E-07
  7.9399999E-03    1.8879518E-07
  7.9750000E-03    1.5363942E-07
  8.0100000E-03    1.0561833E-07
  8.0450000E-03    2.4076401E-08
  8.0800001E-03   -6.2033415E-08
  8.1150001E-03   -1.4610549E-07
  8.1500001E-03   -2.6204063E-07
  8.1850002E-03   -4.0995184E-07
  8.2200002E-03   -5.6900541E-07
  8.2550002E-03   -7.5723869E-07
  8.2900003E-03   -9.9308375E-07
  8.3250003E-03   -1.2602760E-06
  8.3600003E-03   -1.5624795E-06
  8.3950004E-03   -1.9318354E-06
  8.4300004E-03   -2.3726868E-06
  8.4650004E-03   -2.8785798E-06
  8.5000005E-03   -3.4721786E-06
  8.5349996E-03   -4.1653102E-06
  8.5699996E-03   -4.9540668E-06
  8.6049996E-03   -5.8757578E-06
  8.6399997E-03   -6.9716166E-06
  8.6749997E-03   -8.2322276E-06
  8.7099997E-03   -9.6696158E-06
  8.7449998E-03   -1.1343813E-05
  8.7799998E-03   -1.3280888E-05
  8.8149998E-03   -1.5494536E-05
  8.8499999E-03   -1.8048500E-05
  8.8849999E-03   -2.0991576E-05
  8.9199999E-03   -2.4339106E-05
  8.9550000E-03   -2.8157623E-05
  8.9900000E-03   -3.2539167E-05
  9.0250000E-03   -3.7533118E-05
  9.0600001E-03   -4.3201653E-05
  9.0950001E-03   -4.9650764E-05
  9.1300001E-03   -5.6968463E-05
  9.1650002E-03   -6.5233835E-05
  9.2000002E-03   -7.4573756E-05
  9.2350002E-03   -8.5129359E-05
  9.2700003E-03   -9.7009230E-05
  9.3050003E-03   -1.1033845E-04
  9.3400003E-03   -1.2529828E-04
  9.3750004E-03   -1.4206431E-04
  9.4100004E-03   -1.6078350E-04
  9.4450004E-03   -1.8165268E-04
  9.4799995E-03   -2.0491477E-04
  9.5149996E-03   -2.3077466E-04
  9.5499996E-03   -2.5944319E-04
  9.5849996E-03   -2.9120053E-04
  9.6199997E-03   -3.2631439E-04
  9.6549997E-03   -3.6502385E-04
  9.6899997E-03   -4.0763302E-04
  9.7249998E-03   -4.5447485E-04
  9.7599998E-03   -5.0583761E-04
  9.7949998E-03   -5.6203507E-04
  9.8299999E-03   -6.2343181E-04
  9.8649999E-03   -6.9036736E-04
  9.8999999E-03   -7.6317112E-04
  9.9350000E-03   -8.4221282E-04
  9.9700000E-03   -9.2785736E-04
  1.0005000E-02   -1.0204432E-03
  1.0040000E-02   -1.1203256E-03
  1.0075000E-02   -1.2278692E-03
  1.0110000E-02   -1.3434016E-03
  1.0145000E-02   -1.4672268E-03
  1.0180000E-02   -1.5996607E-03
  1.0215000E-02   -1.7410035E-03
  1.0250000E-02   -1.8914917E-03
  1.0285000E-02   -2.0513344E-03
  1.0320000E-02   -2.2207382E-03
  1.0355000E-02   -2.3998464E-03
  1.0390000E-02   -2.5887338E-03
  1.0425000E-02   -2.7874601E-03
  1.0460000E-02   -2.9960249E-03
  1.0495000E-02   -3.2143160E-03
  1.0530000E-02   -3.4421766E-03
  1.0565000E-02   -3.6794113E-03
  1.0600000E-02   -3.9257086E-03
  1.0635000E-02   -4.1806614E-03
  1.0670000E-02   -4.4438061E-03
  1.0705000E-02   -4.7145807E-03
  1.0740000E-02   -4.9923155E-03
  1.0775000E-02   -5.2762604E-03
  1.0810000E-02   -5.5655511E-03
  1.0845000E-02   -5.8592176E-03
  1.0880000E-02   -6.1562192E-03
  1.0915000E-02   -6.4554056E-03
  1.0950000E-02   -6.7555062E-03
  1.0985000E-02   -7.0551671E-03
  1.1020000E-02   -7.3529514E-03
  1.1055000E-02   -7.6473397E-03
  1.1090000E-02   -7.9367375E-03
  1.1125000E-02   -8.2194619E-03
  1.1160000E-02   -8.4937634E-03
  1.1195000E-02   -8.7578567E-03
  1.1230000E-02   -9.0099145E-03
  1.1265000E-02   -9.2480714E-03
  1.1300000E-02   -9.4704414E-03
  1.1335000E-02   -9.6751470E-03
  1.1370000E-02   -9.8603079E-03
  1.1405000E-02   -1.0024061E-02
  1.1440000E-02   -1.0164604E-02
  1.1475000E-02   -1.0280187E-02
  1.1510000E-02   -1.0369138E-02
  1.1545000E-02   -1.0429856E-02
  1.1580000E-02   -1.0460858E-02
  1.1615000E-02   -1.0460781E-02
  1.1650000E-02   -1.0428398E-02
  1.1685000E-02   -1.0362641E-02
  1.1720000E-02   -1.0262607E-02
  1.1755000E-02   -1.0127563E-02
  1.1790000E-02   -9.9569811E-03
  1.1825000E-02   -9.7505171E-03
  1.1860000E-02   -9.5080389E-03
  1.1895000E-02   -9.2296451E-03
  1.1930000E-02   -8.9156665E-03
  1.1965000E-02   -8.5666375E-03
  1.2000000E-02   -8.1833117E-03
  1.2035000E-02   -7.7667069E-03
  1.2070000E-02   -7.3180469E-03
  1.2105000E-02   -6.8387380E-03
  1.2140000E-02   -6.3304473E-03
  1.2175000E-02   -5.7950681E-03
  1.2210000E-02   -5.2346336E-03
  1.2245000E-02   -4.6513444E-03
  1.2280000E-02   -4.0476220E-03
  1.2315000E-02   -3.4260370E-03
  1.2350000E-02   -2.7892401E-03
  1.2385000E-02   -2.1400151E-03
  1.2420000E-02   -1.4812759E-03
  1.2455000E-02   -8.1597472E-04
  1.2490000E-02   -1.4709153E-04
  1.2525000E-02    5.2232813E-04
  1.2560000E-02    1.1892340E-03
  1.2595000E-02    1.8506357E-03
  1.2630000E-02    2.5035813E-03
  1.2665000E-02    3.1451413E-03
  1.2700000E-02    3.7724827E-03
  1.2735000E-02    4.3829205E-03
  1.2770000E-02    4.9738842E-03
  1.2805000E-02    5.5429027E-03
  1.2840000E-02    6.0876771E-03
  1.2875000E-02    6.6061285E-03
  1.2910000E-02    7.0963530E-03
  1.2945000E-02    7.5566112E-03
  1.2980000E-02    7.9854010E-03
  1.3015000E-02    8.3814468E-03
  1.3050000E-02    8.7436736E-03
  1.3085000E-02    9.0712467E-03
  1.3120000E-02    9.3635591E-03
  1.3155000E-02    9.6202074E-03
  1.3190000E-02    9.8410239E-03
  1.3225000E-02    1.0026089E-02
  1.3260000E-02    1.0175650E-02
  1.3295000E-02    1.0290154E-02
  1.3330000E-02    1.0370282E-02
  1.3365000E-02    1.0416877E-02
  1.3400000E-02    1.0430939E-02
  1.3435000E-02    1.0413628E-02
  1.3470000E-02    1.0366238E-02
  1.3505000E-02    1.0290202E-02
  1.3540000E-02    1.0187080E-02
  1.3575000E-02    1.0058491E-02
  1.3610000E-02    9.9061187E-03
  1.3645000E-02    9.7317584E-03
  1.3680000E-02    9.5372498E-03
  1.3715000E-02    9.3244193E-03
  1.3750000E-02    9.0951081E-03
  1.3785000E-02    8.8512069E-03
  1.3820000E-02    8.5945828E-03
  1.3855000E-02    8.3270418E-03
  1.3890000E-02    8.0503589E-03
  1.3925000E-02    7.7662887E-03
  1.3960000E-02    7.4765100E-03
  1.3995000E-02    7.1826312E-03
  1.4030000E-02    6.8862084E-03
  1.4065000E-02    6.5886895E-03
  1.4100000E-02    6.2914137E-03
  1.4135000E-02    5.9956755E-03
  1.4170000E-02    5.7026958E-03
  1.4205000E-02    5.4135411E-03
  1.4240000E-02    5.1291785E-03
  1.4275000E-02    4.8505208E-03
  1.4310000E-02    4.5783729E-03
  1.4345000E-02    4.3134089E-03
  1.4380000E-02    4.0562246E-03
  1.4415000E-02    3.8073573E-03
  1.4450000E-02    3.5672330E-03
  1.4485000E-02    3.3361744E-03
  1.4520000E-02    3.1144391E-03
  1.4555000E-02    2.9022219E-03
  1.4590000E-02    2.6996396E-03
  1.4625000E-02    2.5067427E-03
  1.4660000E-02    2.3235229E-03
  1.4695000E-02    2.1499183E-03
  1.4730000E-02    1.9858098E-03
  1.4765000E-02    1.8310290E-03
  1.4800000E-02    1.6853873E-03
  1.4835000E-02    1.5486678E-03
  1.4870000E-02    1.4205939E-03
  1.4905000E-02    1.3008685E-03
  1.4940000E-02    1.1892159E-03
  1.4975000E-02    1.0853187E-03
  1.5010000E-02    9.8880637E-04
  1.5045000E-02    8.9935056E-04
  1.5080000E-02    8.1663992E-04
  1.5115000E-02    7.4029877E-04
  1.5150000E-02    6.6995388E-04
  1.5185000E-02    6.0529629E-04
  1.5220000E-02    5.4599869E-04
  1.5255000E-02    4.9169268E-04
  1.5290000E-02    4.4204932E-04
  1.5325000E-02    3.9677398E-04
  1.5360000E-02    3.5555329E-04
  1.5395000E-02    3.1808720E-04
  1.5430000E-02    2.8411657E-04
  1.5465000E-02    2.5337559E-04
  1.5500000E-02    2.2558586E-04
  1.5535000E-02    2.0050969E-04
  1.5570000E-02    1.7794046E-04
  1.5605000E-02    1.5765738E-04
  1.5640000E-02    1.3944815E-04
  1.5675001E-02    1.2313430E-04
  1.5710000E-02    1.0854525E-04
  1.5745001E-02    9.5515279E-05
  1.5780000E-02    8.3899773E-05
  1.5814999E-02    7.3563679E-05
  1.5850000E-02    6.4379827E-05
  1.5884999E-02    5.6234148E-05
  1.5920000E-02    4.9014536E-05
  1.5954999E-02    4.2621850E-05
  1.5990000E-02    3.6976078E-05
  1.6024999E-02    3.1987485E-05
  1.6060000E-02    2.7570944E-05
  1.6094999E-02    2.3680730E-05
  1.6130000E-02    2.0270350E-05
  1.6164999E-02    1.7265646E-05
  1.6200000E-02    1.4618942E-05
  1.6235000E-02    1.2308910E-05
  1.6270000E-02    1.0279679E-05
  1.6305000E-02    8.4743215E-06
  1.6340001E-02    6.8950076E-06
  1.6375000E-02    5.5394921E-06
  1.6410001E-02    4.3507089E-06
  1.6445000E-02    3.2974108E-06
  1.6480001E-02    2.3980590E-06
  1.6515000E-02    1.6335013E-06
  1.6550001E-02    9.5535461E-07
  1.6585000E-02    3.6361837E-07
  1.6620001E-02   -1.2711106E-07
  1.6655000E-02   -5.3988941E-07
  1.6690001E-02   -8.9245293E-07
  1.6725000E-02   -1.1764150E-06
  1.6759999E-02   -1.3956318E-06
  1.6795000E-02   -1.5653764E-06
  1.6829999E-02   -1.6853314E-06
  1.6865000E-02   -1.7486461E-06
  1.6899999E-02   -1.7626146E-06
  1.6935000E-02   -1.7417632E-06
  1.6969999E-02   -1.6878025E-06
  1.7005000E-02   -1.5932756E-06
  1.7039999E-02   -1.4635643E-06
  1.7075000E-02   -1.3156276E-06
  1.7109999E-02   -1.1515959E-06
  1.7145000E-02   -9.5233310E-07
  1.7180000E-02   -7.1464137E-07
  1.7215000E-02   -4.7117703E-07
  1.7250000E-02   -2.3211788E-07
  1.7285001E-02    3.8782314E-08
  1.7320000E-02    3.3555710E-07
  1.7355001E-02    6.0905870E-07
  1.7390000E-02    8.8167479E-07
  1.7425001E-02    1.1969661E-06
  1.7460000E-02    1.5042961E-06
  1.7495001E-02    1.7680343E-06
  1.7530000E-02    2.0444154E-06
  1.7565001E-02    2.3340283E-06
  1.7600000E-02    2.5732761E-06
  1.7635001E-02    2.7838507E-06
  1.7670000E-02    3.0144379E-06
  1.7704999E-02    3.2249827E-06
  1.7740000E-02    3.3847161E-06
  1.7774999E-02    3.5367098E-06
  1.7810000E-02    3.6915321E-06
  1.7844999E-02    3.8059038E-06
  1.7880000E-02    3.8750281E-06
  1.7914999E-02    3.9302936E-06
  1.7950000E-02    3.9700494E-06
  1.7984999E-02    3.9722759E-06
  1.8020000E-02    3.9430347E-06
  1.8054999E-02    3.8977109E-06
  1.8090000E-02    3.8284452E-06
  1.8124999E-02    3.7281236E-06
  1.8160000E-02    3.6090232E-06
  1.8195000E-02    3.4756799E-06
  1.8230001E-02    3.3183749E-06
  1.8265000E-02    3.1380382E-06
  1.8300001E-02    2.9439623E-06
  1.8335000E-02    2.7353565E-06
  1.8370001E-02    2.5077832E-06
  1.8405000E-02    2.2662978E-06
  1.8440001E-02    2.0196667E-06
  1.8475000E-02    1.7700222E-06
  1.8510001E-02    1.5167653E-06
  1.8545000E-02    1.2608002E-06
  1.8580001E-02    9.9721660E-07
  1.8615000E-02    7.2570032E-07
  1.8650001E-02    4.6610612E-07
  1.8685000E-02    2.2442521E-07
  1.8719999E-02   -2.7145362E-08
  1.8755000E-02   -2.9063580E-07
  1.8789999E-02   -5.3071915E-07
  1.8825000E-02   -7.4762494E-07
  1.8859999E-02   -9.6716735E-07
  1.8895000E-02   -1.1779487E-06
  1.8929999E-02   -1.3653653E-06
  1.8965000E-02   -1.5453368E-06
  1.8999999E-02   -1.7215245E-06
  1.9035000E-02   -1.8803532E-06
  1.9069999E-02   -2.0180121E-06
  1.9105000E-02   -2.1363264E-06
  1.9140000E-02   -2.2433662E-06
  1.9175000E-02   -2.3436517E-06
  1.9210000E-02   -2.4278884E-06
  1.9245001E-02   -2.5044526E-06
  1.9280000E-02   -2.5807306E-06
  1.9315001E-02   -2.6241355E-06
  1.9350000E-02   -2.6346643E-06
  1.9385001E-02   -2.6614280E-06
  1.9420000E-02   -2.6892599E-06
  1.9455001E-02   -2.6717980E-06
  1.9490000E-02   -2.6460266E-06
  1.9525001E-02   -2.6483574E-06
  1.9560000E-02   -2.6338530E-06
  1.9595001E-02   -2.5816314E-06
  1.9630000E-02   -2.5328784E-06
  1.9664999E-02   -2.4989597E-06
  1.9700000E-02   -2.4489075E-06
  1.9734999E-02   -2.3751095E-06
  1.9770000E-02   -2.3052157E-06
  1.9804999E-02   -2.2490108E-06
  1.9840000E-02   -2.1772953E-06
  1.9874999E-02   -2.0845266E-06
  1.9910000E-02   -2.0079226E-06
  1.9944999E-02   -1.9451227E-06
  1.9980000E-02   -1.8563409E-06
  2.0014999E-02   -1.7589949E-06
  2.0050000E-02   -1.6916375E-06
  2.0085000E-02   -1.6212745E-06
  2.0120000E-02   -1.5158471E-06
  2.0155000E-02   -1.4255902E-06
  2.0190001E-02   -1.3775483E-06
  2.0225000E-02   -1.3114658E-06
  2.0260001E-02   -1.2111166E-06
  2.0295000E-02   -1.1395000E-06
  2.0330001E-02   -1.0947186E-06
  2.0365000E-02   -1.0182329E-06
  2.0400001E-02   -9.2865804E-07
  2.0435000E-02   -8.6847285E-07
  2.0470001E-02   -8.1012507E-07
  2.0505000E-02   -7.3419841E-07
  2.0540001E-02   -6.6607549E-07
  2.0575000E-02   -6.0570420E-07
  2.0609999E-02   -5.3443131E-07
  2.0645000E-02   -4.5073210E-07
  2.0679999E-02   -3.5787787E-07
  2.0715000E-02   -2.6533559E-07
  2.0749999E-02   -1.7351758E-07
  2.0785000E-02   -6.0998325E-08
  2.0819999E-02    6.5277767E-08
  2.0855000E-02    1.8056232E-07
  2.0889999E-02    3.0867568E-07
  2.0925000E-02    4.6875039E-07
  2.0959999E-02    6.2130624E-07
  2.0995000E-02    7.6016880E-07
  2.1029999E-02    9.3433846E-07
  2.1065000E-02    1.1358283E-06
  2.1100000E-02    1.3134810E-06
  2.1135001E-02    1.4837107E-06
  2.1170000E-02    1.6849659E-06
  2.1205001E-02    1.8845761E-06
  2.1240000E-02    2.0503355E-06
  2.1275001E-02    2.2186900E-06
  2.1310000E-02    2.4102269E-06
  2.1345001E-02    2.5896513E-06
  2.1380000E-02    2.7430281E-06
  2.1415001E-02    2.8901102E-06
  2.1450000E-02    3.0289309E-06
  2.1485001E-02    3.1413558E-06
  2.1520000E-02    3.2285768E-06
  2.1555001E-02    3.3058650E-06
  2.1590000E-02    3.3733559E-06
  2.1624999E-02    3.4112727E-06
  2.1660000E-02    3.4180177E-06
  2.1694999E-02    3.4156310E-06
  2.1730000E-02    3.3954611E-06
  2.1764999E-02    3.3316016E-06
  2.1800000E-02    3.2467242E-06
  2.1834999E-02    3.1675254E-06
  2.1870000E-02    3.0610661E-06
  2.1904999E-02    2.9076480E-06
  2.1940000E-02    2.7468113E-06
  2.1974999E-02    2.5865043E-06
  2.2010000E-02    2.3876014E-06
  2.2045000E-02    2.1650774E-06
  2.2080000E-02    1.9625270E-06
  2.2115000E-02    1.7439435E-06
  2.2150001E-02    1.4649767E-06
  2.2185000E-02    1.1787547E-06
  2.2220001E-02    9.2643620E-07
  2.2255000E-02    6.5825748E-07
  2.2290001E-02    3.6101034E-07
  2.2325000E-02    8.2862293E-08
  2.2360001E-02   -1.8705963E-07
  2.2395000E-02   -4.8625122E-07
  2.2430001E-02   -7.9003127E-07
  2.2465000E-02   -1.0743557E-06
  2.2500001E-02   -1.3566921E-06
  2.2535000E-02   -1.6356844E-06
  2.2569999E-02   -1.8959167E-06
  2.2605000E-02   -2.1515903E-06
  2.2639999E-02   -2.4148655E-06
  2.2675000E-02   -2.6598591E-06
  2.2709999E-02   -2.8613761E-06
  2.2745000E-02   -3.0401586E-06
  2.2779999E-02   -3.2242228E-06
  2.2815000E-02   -3.3889346E-06
  2.2849999E-02   -3.5037019E-06
  2.2885000E-02   -3.5972746E-06
  2.2919999E-02   -3.6915139E-06
  2.2955000E-02   -3.7447955E-06
  2.2990000E-02   -3.7402965E-06
  2.3025000E-02   -3.7252910E-06
  2.3060000E-02   -3.7099305E-06
  2.3095001E-02   -3.6482415E-06
  2.3130000E-02   -3.5398855E-06
  2.3165001E-02   -3.4276839E-06
  2.3200000E-02   -3.3041765E-06
  2.3235001E-02   -3.1363356E-06
  2.3270000E-02   -2.9444618E-06
  2.3305001E-02   -2.7574001E-06
  2.3340000E-02   -2.5552908E-06
  2.3375001E-02   -2.3276068E-06
  2.3410000E-02   -2.1017397E-06
  2.3445001E-02   -1.8798918E-06
  2.3480000E-02   -1.6375066E-06
  2.3514999E-02   -1.3822496E-06
  2.3550000E-02   -1.1395339E-06
  2.3584999E-02   -9.0606443E-07
  2.3620000E-02   -6.6789653E-07
  2.3654999E-02   -4.3082866E-07
  2.3690000E-02   -2.0535668E-07
  2.3724999E-02    1.2228982E-08
  2.3760000E-02    2.2870017E-07
  2.3794999E-02    4.3659284E-07
  2.3830000E-02    6.2434577E-07
  2.3864999E-02    8.0181240E-07
  2.3900000E-02    9.8624457E-07
  2.3934999E-02    1.1666373E-06
  2.3970000E-02    1.3293400E-06
  2.4005000E-02    1.4930758E-06
  2.4040001E-02    1.6604022E-06
  2.4075000E-02    1.7992106E-06
  2.4110001E-02    1.9178558E-06
  2.4145000E-02    2.0542000E-06
  2.4180001E-02    2.1875974E-06
  2.4215000E-02    2.2851154E-06
  2.4250001E-02    2.3776674E-06
  2.4285000E-02    2.4836218E-06
  2.4320001E-02    2.5639674E-06
  2.4355000E-02    2.6109051E-06
  2.4390001E-02    2.6568530E-06
  2.4425000E-02    2.6979142E-06
  2.4460001E-02    2.7114022E-06
  2.4495000E-02    2.7008398E-06
  2.4529999E-02    2.6686496E-06
  2.4565000E-02    2.6107084E-06
  2.4599999E-02    2.5365082E-06
  2.4635000E-02    2.4423919E-06
  2.4669999E-02    2.3164330E-06
  2.4705000E-02    2.1808294E-06
  2.4739999E-02    2.0488005E-06
  2.4775000E-02    1.8866237E-06
  2.4809999E-02    1.6913197E-06
  2.4845000E-02    1.5017102E-06
  2.4879999E-02    1.3090319E-06
  2.4915000E-02    1.0908821E-06
  2.4950000E-02    8.8290915E-07
  2.4985000E-02    7.0030723E-07
  2.5020000E-02    5.0238947E-07
  2.5055001E-02    2.8963555E-07
  2.5090000E-02    1.0059516E-07
  2.5125001E-02   -7.0674403E-08
  2.5160000E-02   -2.4415669E-07
  2.5195001E-02   -3.9827353E-07
  2.5230000E-02   -5.1010346E-07
  2.5265001E-02   -5.9954067E-07
  2.5300000E-02   -6.9522355E-07
  2.5335001E-02   -7.8209871E-07
  2.5370000E-02   -8.3074485E-07
  2.5405001E-02   -8.6340577E-07
  2.5440000E-02   -9.1006814E-07
  2.5474999E-02   -9.3631951E-07
  2.5510000E-02   -9.1928604E-07
  2.5544999E-02   -9.1243498E-07
  2.5580000E-02   -9.3623021E-07
  2.5614999E-02   -9.3460153E-07
  2.5650000E-02   -9.0512901E-07
  2.5684999E-02   -9.0767060E-07
  2.5720000E-02   -9.2858784E-07
  2.5754999E-02   -9.1632967E-07
  2.5790000E-02   -9.0551276E-07
  2.5824999E-02   -9.3699731E-07
  2.5860000E-02   -9.6961674E-07
  2.5895000E-02   -9.8995281E-07
  2.5930000E-02   -1.0362115E-06
  2.5965000E-02   -1.0843786E-06
  2.6000001E-02   -1.0998715E-06
  2.6035000E-02   -1.1244077E-06
  2.6070001E-02   -1.1724652E-06
  2.6105000E-02   -1.1986965E-06
  2.6140001E-02   -1.2101535E-06
  2.6175000E-02   -1.2405562E-06
  2.6210001E-02   -1.2628145E-06
  2.6245000E-02   -1.2443107E-06
  2.6280001E-02   -1.2020403E-06
  2.6315000E-02   -1.1620440E-06
  2.6350001E-02   -1.1271504E-06
  2.6385000E-02   -1.0814389E-06
  2.6419999E-02   -1.0150090E-06
  2.6455000E-02   -9.3891612E-07
  2.6489999E-02   -8.5294749E-07
  2.6525000E-02   -7.4156378E-07
  2.6559999E-02   -6.2030108E-07
  2.6595000E-02   -5.1759258E-07
  2.6629999E-02   -4.2325493E-07
  2.6665000E-02   -3.1978632E-07
  2.6699999E-02   -2.2172587E-07
  2.6735000E-02   -1.3976239E-07
  2.6769999E-02   -5.9838236E-08
  2.6805000E-02    1.7124478E-08
  2.6839999E-02    6.7118087E-08
  2.6875000E-02    8.8954266E-08
  2.6910000E-02    1.0600976E-07
  2.6945001E-02    1.1698715E-07
  2.6980000E-02    1.0346158E-07