 -4.8000002E-03    1.0000000E-24
 -4.7650002E-03    1.0000000E-24
 -4.7300002E-03    1.0000002E-24
 -4.6950001E-03    1.0000002E-24
 -4.6600001E-03    1.0000002E-24
 -4.6250001E-03    1.0000000E-24
 -4.5900000E-03    1.0000000E-24
 -4.5550000E-03    1.0000002E-24
 -4.5200000E-03    1.0000001E-24
 -4.4849999E-03    9.9999992E-25
 -4.4499999E-03    1.0000001E-24
 -4.4149999E-03    1.0000001E-24
 -4.3799998E-03    1.0000000E-24
 -4.3449998E-03    1.0000001E-24
 -4.3100002E-03    1.0000001E-24
 -4.2750002E-03    1.0000002E-24
 -4.2400002E-03    1.0000001E-24
 -4.2050001E-03    9.9999992E-25
 -4.1700001E-03    9.9999972E-25
 -4.1350001E-03    1.0000000E-24
 -4.1000000E-03    1.0000005E-24
 -4.0650000E-03    1.0000004E-24
 -4.0300000E-03    9.9999982E-25
 -3.9949999E-03    9.9999972E-25
 -3.9599999E-03    1.0000001E-24
 -3.9249999E-03    1.0000002E-24
 -3.8900001E-03    1.0000001E-24
 -3.8550000E-03    1.0000000E-24
 -3.8200000E-03    1.0000000E-24
 -3.7849999E-03    1.0000001E-24
 -3.7499999E-03    1.0000000E-24
 -3.7150001E-03    1.0000001E-24
 -3.6800001E-03    1.0000006E-24
 -3.6450000E-03    1.0000005E-24
 -3.6100000E-03    9.9999972E-25
 -3.5750000E-03    9.9999972E-25
 -3.5399999E-03    1.0000003E-24
 -3.5049999E-03    1.0000001E-24
 -3.4700001E-03    9.9999972E-25
 -3.4350001E-03    1.0000001E-24
 -3.4000000E-03    1.0000004E-24
 -3.3650000E-03    9.9999992E-25
 -3.3300000E-03    9.9999982E-25
 -3.2949999E-03    1.0000003E-24
 -3.2599999E-03    1.0000002E-24
 -3.2250001E-03    9.9999963E-25
 -3.1900001E-03    9.9999963E-25
 -3.1550000E-03    1.0000002E-24
 -3.1200000E-03    1.0000006E-24
 -3.0850000E-03    1.0000004E-24
 -3.0499999E-03    1.0000002E-24
 -3.0149999E-03    9.9999972E-25
 -2.9800001E-03    9.9999943E-25
 -2.9450001E-03    9.9999982E-25
 -2.9100000E-03    1.0000006E-24
 -2.8750000E-03    1.0000007E-24
 -2.8400000E-03    1.0000002E-24
 -2.8049999E-03    1.0000000E-24
 -2.7699999E-03    1.0000002E-24
 -2.7350001E-03    1.0000000E-24
 -2.7000001E-03    9.9999972E-25
 -2.6650000E-03    1.0000001E-24
 -2.6300000E-03    1.0000004E-24
 -2.5950000E-03    1.0000001E-24
 -2.5599999E-03    9.9999992E-25
 -2.5249999E-03    9.9999992E-25
 -2.4900001E-03    1.0000004E-24
 -2.4550001E-03    1.0000005E-24
 -2.4200000E-03    1.0000002E-24
 -2.3850000E-03    1.0000000E-24
 -2.3500000E-03    9.9999982E-25
 -2.3149999E-03    9.9999992E-25
 -2.2799999E-03    1.0000005E-24
 -2.2450001E-03    1.0000005E-24
 -2.2100001E-03    1.0000002E-24
 -2.1750000E-03    1.0000002E-24
 -2.1400000E-03    9.9999992E-25
 -2.1050000E-03    9.9999923E-25
 -2.0699999E-03    9.9999923E-25
 -2.0349999E-03    1.0000002E-24
 -2.0000001E-03    1.0000006E-24
 -1.9650001E-03    1.0000004E-24
 -1.9300000E-03    1.0000006E-24
 -1.8950000E-03    1.0000007E-24
 -1.8600000E-03    1.0000000E-24
 -1.8250000E-03    9.9999903E-25
 -1.7900000E-03    9.9999963E-25
 -1.7550000E-03    1.0000010E-24
 -1.7199999E-03    1.0000010E-24
 -1.6850000E-03    9.9999992E-25
 -1.6500000E-03    9.9999933E-25
 -1.6150000E-03    9.9999953E-25
 -1.5800000E-03    9.9999972E-25
 -1.5450000E-03    9.9999982E-25
 -1.5100000E-03    1.0000007E-24
 -1.4750001E-03    1.0000011E-24
 -1.4400000E-03    1.0000005E-24
 -1.4050000E-03    1.0000000E-24
 -1.3700000E-03    1.0000005E-24
 -1.3350000E-03    1.0000006E-24
 -1.3000000E-03    9.9999923E-25
 -1.2650000E-03    9.9999824E-25
 -1.2300001E-03    9.9999913E-25
 -1.1950000E-03    1.0000004E-24
 -1.1600000E-03    1.0000005E-24
 -1.1250000E-03    1.0000008E-24
 -1.0900000E-03    1.0000010E-24
 -1.0550000E-03    9.9999992E-25
 -1.0200000E-03    9.9999884E-25
 -9.8500005E-04    9.9999992E-25
 -9.5000002E-04    1.0000013E-24
 -9.1499998E-04    1.0000010E-24
 -8.8000001E-04    9.9999992E-25
 -8.4499997E-04    9.9999963E-25
 -8.1000000E-04    9.9999992E-25
 -7.7500002E-04    9.9999972E-25
 -7.3999999E-04    9.9999972E-25
 -7.0500001E-04    1.0000009E-24
 -6.6999998E-04    1.0000015E-24
 -6.3500000E-04    1.0000004E-24
 -6.0000003E-04    9.9999884E-25
 -5.6499999E-04    9.9999844E-25
 -5.3000002E-04    9.9999972E-25
 -4.9499999E-04    1.0000008E-24
 -4.6000001E-04    1.0000004E-24
 -4.2500001E-04    9.9999963E-25
 -3.9000000E-04    9.9999963E-25
 -3.5500000E-04    1.0000003E-24
 -3.1999999E-04    1.0000010E-24
 -2.8499999E-04    1.0000011E-24
 -2.5000001E-04    1.0000001E-24
 -2.1499999E-04    9.9999864E-25
 -1.8000000E-04    9.9999893E-25
 -1.4500000E-04    1.0000006E-24
 -1.1000000E-04    1.0000017E-24
 -7.5000004E-05    1.0000019E-24
 -3.9999999E-05    1.0000010E-24
 -4.9999999E-06    9.9999923E-25
  2.9999999E-05    9.9999815E-25
  6.5000000E-05    9.9999893E-25
  9.9999997E-05    1.0000008E-24
  1.3499999E-04    1.0000018E-24
  1.7000000E-04    1.0000008E-24
  2.0500000E-04    9.9999933E-25
  2.3999999E-04    9.9999903E-25
  2.7500000E-04    9.9999992E-25
  3.1000000E-04    1.0000002E-24
  3.4500001E-04    9.9999923E-25
  3.8000001E-04    9.9999913E-25
  4.1499999E-04    1.0000003E-24
  4.4999999E-04    1.0000010E-24
  4.8500000E-04    1.0000009E-24
  5.2000000E-04    1.0000007E-24
  5.5499998E-04    9.9999972E-25
  5.9000001E-04    9.9999854E-25
  6.2499999E-04    9.9999913E-25
  6.6000002E-04    1.0000012E-24
  6.9500000E-04    1.0000018E-24
  7.3000003E-04    1.0000002E-24
  7.6500000E-04    9.9999913E-25
  7.9999998E-04    9.9999992E-25
  8.3500001E-04    1.0000007E-24
  8.6999999E-04    1.0000004E-24
  9.0500002E-04    1.0000000E-24
  9.4000000E-04    1.0000005E-24
  9.7499997E-04    1.0000000E-24
  1.0100000E-03    9.9999844E-25
  1.0450000E-03    9.9999864E-25
  1.0800000E-03    1.0000007E-24
  1.1150000E-03    1.0000017E-24
  1.1500000E-03    1.0000007E-24
  1.1849999E-03    9.9999903E-25
  1.2200000E-03    9.9999893E-25
  1.2550000E-03    1.0000004E-24
  1.2900000E-03    1.0000009E-24
  1.3250000E-03    1.0000000E-24
  1.3600000E-03    9.9999953E-25
  1.3950000E-03    9.9999953E-25
  1.4299999E-03    1.0000000E-24
  1.4650000E-03    1.0000015E-24
  1.5000000E-03    1.0000017E-24
  1.5350000E-03    1.0000000E-24
  1.5700000E-03    9.9999874E-25
  1.6050000E-03    9.9999864E-25
  1.6400000E-03    9.9999943E-25
  1.6749999E-03    1.0000008E-24
  1.7100000E-03    1.0000013E-24
  1.7450000E-03    1.0000009E-24
  1.7800000E-03    1.0000005E-24
  1.8150000E-03    9.9999963E-25
  1.8500000E-03    9.9999824E-25
  1.8850000E-03    9.9999864E-25
  1.9200000E-03    1.0000006E-24
  1.9550000E-03    1.0000018E-24
  1.9900000E-03    1.0000006E-24
  2.0250001E-03    9.9999913E-25
  2.0600001E-03    9.9999953E-25
  2.0949999E-03    1.0000010E-24
  2.1299999E-03    1.0000013E-24
  2.1650000E-03    1.0000000E-24
  2.2000000E-03    9.9999864E-25
  2.2350000E-03    9.9999923E-25
  2.2700001E-03    1.0000016E-24
  2.3050001E-03    1.0000024E-24
  2.3399999E-03    9.9999963E-25
  2.3749999E-03    9.9999746E-25
  2.4100000E-03    9.9999953E-25
  2.4450000E-03    1.0000019E-24
  2.4800000E-03    1.0000011E-24
  2.5150001E-03    9.9999953E-25
  2.5500001E-03    9.9999972E-25
  2.5849999E-03    1.0000001E-24
  2.6199999E-03    9.9999992E-25
  2.6550000E-03    1.0000004E-24
  2.6900000E-03    1.0000011E-24
  2.7250000E-03    1.0000002E-24
  2.7600001E-03    9.9999884E-25
  2.7950001E-03    9.9999982E-25
  2.8299999E-03    1.0000022E-24
  2.8649999E-03    1.0000022E-24
  2.9000000E-03    9.9999923E-25
  2.9350000E-03    9.9999736E-25
  2.9700000E-03    9.9999903E-25
  3.0050001E-03    1.0000007E-24
  3.0400001E-03    1.0000004E-24
  3.0749999E-03    1.0000005E-24
  3.1099999E-03    1.0000007E-24
  3.1450000E-03    9.9999972E-25
  3.1800000E-03    9.9999844E-25
  3.2150000E-03    9.9999903E-25
  3.2500001E-03    1.0000005E-24
  3.2850001E-03    1.0000016E-24
  3.3199999E-03    1.0000014E-24
  3.3549999E-03    9.9999972E-25
  3.3900000E-03    9.9999903E-25
  3.4250000E-03    1.0000001E-24
  3.4600000E-03    1.0000014E-24
  3.4950001E-03    1.0000012E-24
  3.5300001E-03    9.9999963E-25
  3.5649999E-03    9.9999874E-25
  3.5999999E-03    9.9999972E-25
  3.6350000E-03    1.0000005E-24
  3.6700000E-03    9.9999943E-25
  3.7050000E-03    9.9999903E-25
  3.7400001E-03    1.0000007E-24
  3.7750001E-03    1.0000015E-24
  3.8099999E-03    1.0000008E-24
  3.8449999E-03    1.0000005E-24
  3.8800000E-03    1.0000006E-24
  3.9149998E-03    9.9999972E-25
  3.9499998E-03    9.9999874E-25
  3.9849998E-03    9.9999844E-25
  4.0199999E-03    9.9999844E-25
  4.0549999E-03    9.9999913E-25
  4.0899999E-03    1.0000011E-24
  4.1250000E-03    1.0000018E-24
  4.1600000E-03    1.0000002E-24
  4.1950000E-03    9.9999943E-25
  4.2300001E-03    9.9999963E-25
  4.2650001E-03    9.9999923E-25
  4.3000001E-03    9.9999972E-25
  4.3350002E-03    1.0000018E-24
  4.3700002E-03    1.0000020E-24
  4.4049998E-03    1.0000007E-24
  4.4399998E-03    1.0000004E-24
  4.4749998E-03    9.9999992E-25
  4.5099999E-03    9.9999913E-25
  4.5449999E-03    9.9999893E-25
  4.5799999E-03    9.9999893E-25
  4.6150000E-03    9.9999953E-25
  4.6500000E-03    1.0000010E-24
  4.6850001E-03    1.0000012E-24
  4.7200001E-03    9.9999923E-25
  4.7550001E-03    9.9999972E-25
  4.7900002E-03    1.0000024E-24
  4.8250002E-03    1.0000024E-24
  4.8600002E-03    9.9999893E-25
  4.8949998E-03    9.9999677E-25
  4.9299998E-03    9.9999844E-25
  4.9649999E-03    1.0000012E-24
  4.9999999E-03    1.0000021E-24
  5.0349999E-03    1.0000010E-24
  5.0700000E-03    9.9999953E-25
  5.1050000E-03    9.9999903E-25
  5.1400000E-03    9.9999972E-25
  5.1750001E-03    1.0000001E-24
  5.2100001E-03    1.0000005E-24
  5.2450001E-03    1.0000013E-24
  5.2800002E-03    1.0000007E-24
  5.3150002E-03    9.9999903E-25
  5.3500002E-03    9.9999943E-25
  5.3849998E-03    1.0000008E-24
  5.4199998E-03    9.9999972E-25
  5.4549999E-03    9.9999834E-25
  5.4899999E-03    9.9999992E-25
  5.5249999E-03    1.0000013E-24
  5.5600000E-03    1.0000003E-24
  5.5950000E-03    9.9999972E-25
  5.6300000E-03    1.0000002E-24
  5.6650001E-03    9.9999982E-25
  5.7000001E-03    9.9999903E-25
  5.7350001E-03    9.9999923E-25
  5.7700002E-03    1.0000009E-24
  5.8050002E-03    1.0000026E-24
  5.8400002E-03    1.0000022E-24
  5.8749998E-03    9.9999953E-25
  5.9099998E-03    9.9999775E-25
  5.9449999E-03    9.9999933E-25
  5.9799999E-03    1.0000018E-24
  6.0149999E-03    1.0000016E-24
  6.0500000E-03    9.9999923E-25
  6.0850000E-03    9.9999844E-25
  6.1200000E-03    1.0000012E-24
  6.1550001E-03    1.0000034E-24
  6.1900001E-03    9.9999864E-25
  6.2250001E-03    9.9999243E-25
  6.2600002E-03    9.9999923E-25
  6.2950002E-03    1.0000126E-24
  6.3299998E-03    1.0000046E-24
  6.3649998E-03    9.9997971E-25
  6.3999998E-03    9.9998750E-25
  6.4349999E-03    1.0000306E-24
  6.4699999E-03    1.0000295E-24
  6.5049999E-03    9.9996028E-25
  6.5400000E-03    9.9994194E-25
  6.5750000E-03    1.0000464E-24
  6.6100000E-03    1.0001065E-24
  6.6450001E-03    9.9995772E-25
  6.6800001E-03    9.9981720E-25
  6.7150001E-03    1.0000120E-24
  6.7500002E-03    1.0002948E-24
  6.7850002E-03    1.0000721E-24
  6.8199998E-03    9.9955599E-25
  6.8549998E-03    9.9974857E-25
  6.8899998E-03    1.0006142E-24
  6.9249999E-03    1.0005796E-24
  6.9599999E-03    9.9921609E-25
  6.9949999E-03    9.9884848E-25
  7.0300000E-03    1.0008549E-24
  7.0650000E-03    1.0020457E-24
  7.1000000E-03    9.9931322E-25
  7.1350001E-03    9.9661847E-25
  7.1700001E-03    9.9998759E-25
  7.2050001E-03    1.0052004E-24
  7.2400002E-03    1.0016855E-24
  7.2750002E-03    9.9257832E-25
  7.3099998E-03    9.9503966E-25
  7.3449998E-03    1.0097458E-24
  7.3799998E-03    1.0107575E-24
  7.4149999E-03    9.8867296E-25
  7.4499999E-03    9.7988505E-25
  7.4850000E-03    1.0104750E-24
  7.5200000E-03    1.0338749E-24
  7.5550000E-03    9.9541891E-25
  7.5900001E-03    9.4741721E-25
  7.6250001E-03    9.8926421E-25
  7.6600001E-03    1.0751770E-24
  7.6950002E-03    1.0413499E-24
  7.7300002E-03    9.0158223E-25
  7.7650002E-03    9.0465011E-25
  7.7999998E-03    1.1140799E-24
  7.8349998E-03    1.1811498E-24
  7.8699999E-03    8.9274827E-25
  7.9049999E-03    6.9395280E-25
  7.9399999E-03    1.0526975E-24
  7.9750000E-03    1.4712033E-24
  8.0100000E-03    1.0866479E-24
  8.0450000E-03    3.3509549E-25
  8.0800001E-03    6.3768232E-25
  8.1150001E-03    1.8496019E-24
  8.1500001E-03    1.8330700E-24
  8.1850002E-03    4.9557549E-26
  8.2200002E-03   -5.5856218E-25
  8.2550002E-03    1.8339724E-24
  8.2900003E-03    3.5768957E-24
  8.3250003E-03    7.1440101E-25
  8.3600003E-03   -2.8496370E-24
  8.3950004E-03    2.5289648E-26
  8.4300004E-03    6.2339788E-24
  8.4650004E-03    4.3181142E-24
  8.5000005E-03   -5.3685586E-24
  8.5349996E-03   -6.1322647E-24
  8.5699996E-03    7.5846704E-24
  8.6049996E-03    1.3716966E-23
  8.6399997E-03   -3.7966668E-24
  8.6749997E-03   -1.9074205E-23
  8.7099997E-03    4.7300031E-25
  8.7449998E-03    2.9645156E-23
  8.7799998E-03    1.2408639E-23
  8.8149998E-03   -3.5799325E-23
  8.8499999E-03   -2.9053192E-23
  8.8849999E-03    4.2388661E-23
  8.9199999E-03    5.9399945E-23
  8.9550000E-03   -3.6167774E-23
  8.9900000E-03   -9.6151485E-23
  9.0250000E-03    1.7428402E-23
  9.0600001E-03    1.4526364E-22
  9.0950001E-03    3.1924961E-23
  9.1300001E-03   -1.9198505E-22
  9.1650002E-03   -1.1558415E-22
  9.2000002E-03    2.3004719E-22
  9.2350002E-03    2.5215680E-22
  9.2700003E-03   -2.2766124E-22
  9.3050003E-03   -4.3956339E-22
  9.3400003E-03    1.5660603E-22
  9.3750004E-03    6.7960400E-22
  9.4100004E-03    3.8814393E-23
  9.4450004E-03   -9.3718220E-22
  9.4799995E-03   -4.0692715E-22
  9.5149996E-03    1.1603078E-21
  9.5499996E-03    1.0100535E-21
  9.5849996E-03   -1.2368059E-21
  9.6199997E-03   -1.8749569E-21
  9.6549997E-03    1.0163729E-21
  9.6899997E-03    2.9950705E-21
  9.7249998E-03   -2.7941059E-22
  9.7599998E-03   -4.2611474E-21
  9.7949998E-03   -1.2192296E-21
  9.8299999E-03    5.4418649E-21
  9.8649999E-03    3.7399723E-21
  9.8999999E-03   -6.1033723E-21
  9.9350000E-03   -7.4554831E-21
  9.9700000E-03    5.6004893E-21
  1.0005000E-02    1.2362455E-20
  1.0040000E-02   -3.0435325E-21
  1.0075000E-02   -1.8099263E-20
  1.0110000E-02   -2.6233462E-21
  1.0145000E-02    2.3777971E-20
  1.0180000E-02    1.2500360E-20
  1.0215000E-02   -2.7752559E-20
  1.0250000E-02   -2.7417803E-20
  1.0285000E-02    2.7500346E-20
  1.0320000E-02    4.7535588E-20
  1.0355000E-02   -1.9532549E-20
  1.0390000E-02   -7.1672518E-20
  1.0425000E-02   -3.1717638E-22
  1.0460000E-02    9.6695850E-20
  1.0495000E-02    3.6463142E-20
  1.0530000E-02   -1.1667847E-19
  1.0565000E-02   -9.2477306E-20
  1.0600000E-02    1.2234419E-19
  1.0635000E-02    1.6953692E-19
  1.0670000E-02   -1.0089066E-19
  1.0705000E-02   -2.6422243E-19
  1.0740000E-02    3.6708902E-20
  1.0775000E-02    3.6598867E-19
  1.0810000E-02    8.6707786E-20
  1.0845000E-02   -4.5464721E-19
  1.0880000E-02   -2.8341583E-19
  1.0915000E-02    4.9813147E-19
  1.0950000E-02    5.5953604E-19
  1.0985000E-02   -4.5199020E-19
  1.1020000E-02   -9.0587899E-19
  1.1055000E-02    2.6152220E-19
  1.1090000E-02    1.2892689E-18
  1.1125000E-02    1.3173359E-19
  1.1160000E-02   -1.6442459E-18
  1.1195000E-02   -7.7881324E-19
  1.1230000E-02    1.8658479E-18
  1.1265000E-02    1.7056477E-18
  1.1300000E-02   -1.8078524E-18
  1.1335000E-02   -2.8893299E-18
  1.1370000E-02    1.2899956E-18
  1.1405000E-02    4.2307765E-18
  1.1440000E-02   -1.1817604E-19
  1.1475000E-02   -5.5279231E-18
  1.1510000E-02   -1.8801263E-18
  1.1545000E-02    6.4539134E-18
  1.1580000E-02    4.7992209E-18
  1.1615000E-02   -6.5545544E-18
  1.1650000E-02   -8.5862985E-18
  1.1685000E-02    5.2683307E-18
  1.1720000E-02    1.2955350E-17
  1.1755000E-02   -1.9927685E-18
  1.1790000E-02   -1.7312784E-17
  1.1825000E-02   -3.8135305E-18
  1.1860000E-02    2.0691837E-17
  1.1895000E-02    1.2458487E-17
  1.1930000E-02   -2.1753350E-17
  1.1965000E-02   -2.3818838E-17
  1.2000000E-02    1.8849911E-17
  1.2035000E-02    3.7095477E-17
  1.2070000E-02   -1.0226441E-17
  1.2105000E-02   -5.0617405E-17
  1.2140000E-02   -5.6905894E-18
  1.2175000E-02    6.1660902E-17
  1.2210000E-02    2.9793553E-17
  1.2245000E-02   -6.6495991E-17
  1.2280000E-02   -6.1772717E-17
  1.2315000E-02    6.0585831E-17
  1.2350000E-02    9.9485839E-17
  1.2385000E-02   -3.9107690E-17
  1.2420000E-02   -1.3839072E-16
  1.2455000E-02   -2.1452942E-18
  1.2490000E-02    1.7123656E-16
  1.2525000E-02    6.5570323E-17
  1.2560000E-02   -1.8810669E-16
  1.2595000E-02   -1.5022280E-16
  1.2630000E-02    1.7725132E-16
  1.2665000E-02    2.5045851E-16
  1.2700000E-02   -1.2634611E-16
  1.2735000E-02   -3.5448641E-16
  1.2770000E-02    2.4994245E-17
  1.2805000E-02    4.4397364E-16
  1.2840000E-02    1.3251052E-16
  1.2875000E-02   -4.9423801E-16
  1.2910000E-02   -3.4341950E-16
  1.2945000E-02    4.7640537E-16
  1.2980000E-02    5.9314514E-16
  1.3015000E-02   -3.6115108E-16
  1.3050000E-02   -8.5271257E-16
  1.3085000E-02    1.2425470E-16
  1.3120000E-02    1.0776715E-15
  1.3155000E-02    2.4622734E-16
  1.3190000E-02   -1.2097249E-15
  1.3225000E-02   -7.4173198E-16
  1.3260000E-02    1.1823490E-15
  1.3295000E-02    1.3263209E-15
  1.3330000E-02   -9.2961982E-16
  1.3365000E-02   -1.9307587E-15
  1.3400000E-02    4.0027032E-16
  1.3435000E-02    2.4528230E-15
  1.3470000E-02    4.2720829E-16
  1.3505000E-02   -2.7623157E-15
  1.3540000E-02   -1.5274763E-15
  1.3575000E-02    2.7143012E-15
  1.3610000E-02    2.8134646E-15
  1.3645000E-02   -2.1713363E-15
  1.3680000E-02   -4.1280837E-15
  1.3715000E-02    1.0322956E-15
  1.3750000E-02    5.2452642E-15
  1.3785000E-02    7.3209587E-16
  1.3820000E-02   -5.8884490E-15
  1.3855000E-02   -3.0487591E-15
  1.3890000E-02    5.7589228E-15
  1.3925000E-02    5.7114271E-15
  1.3960000E-02   -4.5895358E-15
  1.3995000E-02   -8.3729986E-15
  1.4030000E-02    2.2039001E-15
  1.4065000E-02    1.0554954E-14
  1.4100000E-02    1.4116614E-15
  1.4135000E-02   -1.1693210E-14
  1.4170000E-02   -6.0471160E-15
  1.4205000E-02    1.1213143E-14
  1.4240000E-02    1.1225428E-14
  1.4275000E-02   -8.6366791E-15
  1.4310000E-02   -1.6196359E-14
  1.4345000E-02    3.7105460E-15
  1.4380000E-02    1.9979883E-14
  1.4415000E-02    3.4554576E-15
  1.4450000E-02   -2.1481542E-14
  1.4485000E-02   -1.2281458E-14
  1.4520000E-02    1.9670963E-14
  1.4555000E-02    2.1670208E-14
  1.4590000E-02   -1.3803106E-14
  1.4625000E-02   -3.0033037E-14
  1.4660000E-02    3.6785671E-15
  1.4695000E-02    3.5439340E-14
  1.4730000E-02    1.0120615E-14
  1.4765000E-02   -3.5886899E-14
  1.4800000E-02   -2.6058806E-14
  1.4835000E-02    2.9711676E-14
  1.4870000E-02    4.1645002E-14
  1.4905000E-02   -1.6040585E-14
  1.4940000E-02   -5.3600397E-14
  1.4975000E-02   -4.7238587E-15
  1.5010000E-02    5.8277317E-14
  1.5045000E-02    3.0519004E-14
  1.5080000E-02   -5.2330356E-14
  1.5115000E-02   -5.7479297E-14
  1.5150000E-02    3.3545188E-14
  1.5185000E-02    8.0110431E-14
  1.5220000E-02   -1.7522921E-15
  1.5255000E-02   -9.1899239E-14
  1.5290000E-02   -4.0345192E-14
  1.5325000E-02    8.6428681E-14
  1.5360000E-02    8.6729960E-14
  1.5395000E-02   -5.8855563E-14
  1.5430000E-02   -1.2819619E-13
  1.5465000E-02    7.5811295E-15
  1.5500000E-02    1.5319699E-13
  1.5535000E-02    6.4111463E-14
  1.5570000E-02   -1.4962559E-13
  1.5605000E-02   -1.4695073E-13
  1.5640000E-02    1.0737442E-13
  1.5675001E-02    2.2551367E-13
  1.5710000E-02   -2.1419451E-14
  1.5745001E-02   -2.7938836E-13
  1.5780000E-02   -1.0503991E-13
  1.5814999E-02    2.8598901E-13
  1.5850000E-02    2.5822313E-13
  1.5884999E-02   -2.2484549E-13
  1.5920000E-02   -4.1282835E-13
  1.5954999E-02    8.3073841E-14
  1.5990000E-02    5.3337510E-13
  1.6024999E-02    1.3875384E-13
  1.6060000E-02   -5.7846447E-13
  1.6094999E-02   -4.2171453E-13
  1.6130000E-02    5.0786865E-13
  1.6164999E-02    7.2590892E-13
  1.6200000E-02   -2.9207797E-13
  1.6235000E-02   -9.9180039E-13
  1.6270000E-02   -7.7387519E-14
  1.6305000E-02    1.1461276E-12
  1.6340001E-02    5.7839681E-13
  1.6375000E-02   -1.1131912E-12
  1.6410001E-02   -1.1521398E-12
  1.6445000E-02    8.3073609E-13
  1.6480001E-02    1.7034032E-12
  1.6515000E-02   -2.6788334E-13
  1.6550001E-02   -2.1084987E-12
  1.6585000E-02   -5.5732448E-13
  1.6620001E-02    2.2325932E-12
  1.6655000E-02    1.5658358E-12
  1.6690001E-02   -1.9546654E-12
  1.6725000E-02   -2.6144666E-12
  1.6759999E-02    1.1977997E-12
  1.6795000E-02    3.5061103E-12
  1.6829999E-02    4.0939579E-14
  1.6865000E-02   -4.0145595E-12
  1.6899999E-02   -1.6675038E-12
  1.6935000E-02    3.9229306E-12
  1.6969999E-02    3.4816490E-12
  1.7005000E-02   -3.0716317E-12
  1.7039999E-02   -5.1882162E-12
  1.7075000E-02    1.4073668E-12
  1.7109999E-02    6.4315940E-12
  1.7145000E-02    9.7703551E-13
  1.7180000E-02   -6.8522484E-12
  1.7215000E-02   -3.8229480E-12
  1.7250000E-02    6.1591405E-12
  1.7285001E-02    6.7165449E-12
  1.7320000E-02   -4.2057794E-12
  1.7355001E-02   -9.1345733E-12
  1.7390000E-02    1.0545981E-12
  1.7425001E-02    1.0524351E-11
  1.7460000E-02    2.9877457E-12
  1.7495001E-02   -1.0408088E-11
  1.7530000E-02   -7.3778995E-12
  1.7565001E-02    8.4951031E-12
  1.7600000E-02    1.1395170E-11
  1.7635001E-02   -4.7781774E-12
  1.7670000E-02   -1.4250084E-11
  1.7704999E-02   -4.0987529E-13
  1.7740000E-02    1.5228726E-11
  1.7774999E-02    6.3998568E-12
  1.7810000E-02   -1.3848389E-11
  1.7844999E-02   -1.2260705E-11
  1.7880000E-02    9.9927991E-12
  1.7914999E-02    1.6941875E-11
  1.7950000E-02   -3.9937337E-12
  1.7984999E-02   -1.9464581E-11
  1.8020000E-02   -3.3688558E-12
  1.8054999E-02    1.9127465E-11
  1.8090000E-02    1.0960812E-11
  1.8124999E-02   -1.5683966E-11
  1.8160000E-02   -1.7476243E-11
  1.8195000E-02    9.4470508E-12
  1.8230001E-02    2.1679622E-11
  1.8265000E-02   -1.2893881E-12
  1.8300001E-02   -2.2663489E-11
  1.8335000E-02   -7.4766573E-12
  1.8370001E-02    2.0064738E-11
  1.8405000E-02    1.5326037E-11
  1.8440001E-02   -1.4186686E-11
  1.8475000E-02   -2.0816692E-11
  1.8510001E-02    5.9890578E-12
  1.8545000E-02    2.2895012E-11
  1.8580001E-02    3.0664074E-12
  1.8615000E-02   -2.1141661E-11
  1.8650001E-02   -1.1292504E-11
  1.8685000E-02    1.5896758E-11
  1.8719999E-02    1.7122760E-11
  1.8755000E-02   -8.2259182E-12
  1.8789999E-02   -1.9453715E-11
  1.8825000E-02   -2.7740730E-13
  1.8859999E-02    1.7903932E-11
  1.8895000E-02    7.8186181E-12
  1.8929999E-02   -1.2924677E-11
  1.8965000E-02   -1.2789732E-11
  1.8999999E-02    5.7284334E-12
  1.9035000E-02    1.4131494E-11
  1.9069999E-02    1.9559901E-12
  1.9105000E-02   -1.1585936E-11
  1.9140000E-02   -8.2525115E-12
  1.9175000E-02    5.7772975E-12
  1.9210000E-02    1.1549233E-11
  1.9245001E-02    1.8999472E-12
  1.9280000E-02   -1.0860981E-11
  1.9315001E-02   -9.5646668E-12
  1.9350000E-02    6.0583968E-12
  1.9385001E-02    1.5236227E-11
  1.9420000E-02    2.0800024E-12
  1.9455001E-02   -1.7244036E-11
  1.9490000E-02   -1.2002662E-11
  1.9525001E-02    1.4570024E-11
  1.9560000E-02    2.1667789E-11
  1.9595001E-02   -7.0617505E-12
  1.9630000E-02   -2.8912501E-11
  1.9664999E-02   -4.5189694E-12
  1.9700000E-02    3.1827155E-11
  1.9734999E-02    1.8598055E-11
  1.9770000E-02   -2.9075773E-11
  1.9804999E-02   -3.3008221E-11
  1.9840000E-02    2.0122799E-11
  1.9874999E-02    4.5277060E-11
  1.9910000E-02   -5.3581267E-12
  1.9944999E-02   -5.2949381E-11
  1.9980000E-02   -1.3879124E-11
  2.0014999E-02    5.3916618E-11
  2.0050000E-02    3.5370616E-11
  2.0085000E-02   -4.6739248E-11
  2.0120000E-02   -5.6180872E-11
  2.0155000E-02    3.0956748E-11
  2.0190001E-02    7.2933534E-11
  2.0225000E-02   -7.3562796E-12
  2.0260001E-02   -8.2227732E-11
  2.0295000E-02   -2.1867711E-11
  2.0330001E-02    8.1188008E-11
  2.0365000E-02    5.3149402E-11
  2.0400001E-02   -6.8090089E-11
  2.0435000E-02   -8.1858624E-11
  2.0470001E-02    4.2956857E-11
  2.0505000E-02    1.0292530E-10
  2.0540001E-02   -7.9633453E-12
  2.0575000E-02   -1.1175356E-10
  2.0609999E-02   -3.2541869E-11
  2.0645000E-02    1.0526902E-10
  2.0679999E-02    7.2529593E-11
  2.0715000E-02   -8.2839832E-11
  2.0749999E-02   -1.0529035E-10
  2.0785000E-02    4.6792518E-11
  2.0819999E-02    1.2478221E-10
  2.0855000E-02   -2.3079275E-12
  2.0889999E-02   -1.2705297E-10
  2.0925000E-02   -4.3421104E-11
  2.0959999E-02    1.1134049E-10
  2.0995000E-02    8.2668844E-11
  2.1029999E-02   -8.0465364E-11
  2.1065000E-02   -1.0894440E-10
  2.1100000E-02    4.0305950E-11
  2.1135001E-02    1.1854648E-10
  2.1170000E-02    1.5537916E-12
  2.1205001E-02   -1.1146413E-10
  2.1240000E-02   -3.7701162E-11
  2.1275001E-02    9.1300190E-11
  2.1310000E-02    6.2786200E-11
  2.1345001E-02   -6.4152808E-11
  2.1380000E-02   -7.4833056E-11
  2.1415001E-02    3.6734314E-11
  2.1450000E-02    7.5481912E-11
  2.1485001E-02   -1.4367754E-11
  2.1520000E-02   -6.9106915E-11
  2.1555001E-02   -5.1881530E-13
  2.1590000E-02    6.1062246E-11
  2.1624999E-02    8.8739406E-12
  2.1660000E-02   -5.5648916E-11
  2.1694999E-02   -1.4311771E-11
  2.1730000E-02    5.4468763E-11
  2.1764999E-02    2.1347557E-11
  2.1800000E-02   -5.5906734E-11
  2.1834999E-02   -3.3351839E-11
  2.1870000E-02    5.5836131E-11
  2.1904999E-02    5.0880695E-11
  2.1940000E-02   -4.9425634E-11
  2.1974999E-02   -7.1170229E-11
  2.2010000E-02    3.3228045E-11
  2.2045000E-02    8.8845285E-11
  2.2080000E-02   -6.9915918E-12
  2.2115000E-02   -9.7944652E-11
  2.2150001E-02   -2.5944549E-11
  2.2185000E-02    9.4057234E-11
  2.2220001E-02    5.9416340E-11
  2.2255000E-02   -7.6193198E-11
  2.2290001E-02   -8.6589597E-11
  2.2325000E-02    4.7086265E-11
  2.2360001E-02    1.0204141E-10
  2.2395000E-02   -1.2532080E-11
  2.2430001E-02   -1.0387150E-10
  2.2465000E-02   -2.1174899E-11
  2.2500001E-02    9.3525507E-11
  2.2535000E-02    4.9041615E-11
  2.2569999E-02   -7.5015688E-11
  2.2605000E-02   -6.9211560E-11
  2.2639999E-02    5.2230179E-11
  2.2675000E-02    8.2078108E-11
  2.2709999E-02   -2.7895526E-11
  2.2745000E-02   -8.9843286E-11
  2.2779999E-02    1.4148072E-12
  2.2815000E-02    9.2765400E-11
  2.2849999E-02    2.8768410E-11
  2.2885000E-02   -8.8660489E-11
  2.2919999E-02   -6.3860237E-11
  2.2955000E-02    7.1470607E-11
  2.2990000E-02    9.9753858E-11
  2.3025000E-02   -3.6328458E-11
  2.3060000E-02   -1.2852697E-10
  2.3095001E-02   -1.9600493E-11
  2.3130000E-02    1.3637853E-10
  2.3165001E-02    8.9967235E-11
  2.3200000E-02   -1.1092130E-10
  2.3235001E-02   -1.6057876E-10
  2.3270000E-02    4.3781773E-11
  2.3305001E-02    2.0682796E-10
  2.3340000E-02    5.7520280E-11
  2.3375001E-02   -2.0706871E-10
  2.3410000E-02   -1.7433602E-10
  2.3445001E-02    1.4435579E-10
  2.3480000E-02    2.7264166E-10
  2.3514999E-02   -2.1878095E-11
  2.3550000E-02   -3.1885319E-10
  2.3584999E-02   -1.4121020E-10
  2.3620000E-02    2.8179675E-10
  2.3654999E-02    3.0041605E-10
  2.3690000E-02   -1.5821519E-10
  2.3724999E-02   -4.1084294E-10
  2.3760000E-02   -3.5541486E-11
  2.3794999E-02    4.2767218E-10
  2.3830000E-02    2.5107083E-10
  2.3864999E-02   -3.3626668E-10
  2.3900000E-02   -4.3612802E-10
  2.3934999E-02    1.4104883E-10
  2.3970000E-02    5.2752042E-10
  2.4005000E-02    1.0735975E-10
  2.4040001E-02   -4.9761945E-10
  2.4075000E-02   -3.5064493E-10
  2.4110001E-02    3.4067527E-10
  2.4145000E-02    5.1576932E-10
  2.4180001E-02   -1.0185805E-10
  2.4215000E-02   -5.6555288E-10
  2.4250001E-02   -1.6728893E-10
  2.4285000E-02    4.7364485E-10
  2.4320001E-02    3.8218653E-10
  2.4355000E-02   -2.7764424E-10
  2.4390001E-02   -4.9500559E-10
  2.4425000E-02    2.6075335E-11
  2.4460001E-02    4.6883980E-10
  2.4495000E-02    1.9418241E-10
  2.4529999E-02   -3.3648651E-10
  2.4565000E-02   -3.3916314E-10
  2.4599999E-02    1.2970974E-10
  2.4635000E-02    3.5765940E-10
  2.4669999E-02    6.5800344E-11
  2.4705000E-02   -2.7246783E-10
  2.4739999E-02   -2.0168189E-10
  2.4775000E-02    1.1180169E-10
  2.4809999E-02    2.2244323E-10
  2.4845000E-02    3.4053746E-11
  2.4879999E-02   -1.6303527E-10
  2.4915000E-02   -1.3598275E-10
  2.4950000E-02    3.7880497E-11
  2.4985000E-02    1.3917836E-10
  2.5020000E-02    7.1916854E-11
  2.5055001E-02   -7.1857284E-11
  2.5090000E-02   -1.3445441E-10
  2.5125001E-02   -4.8672209E-11
  2.5160000E-02    9.4281763E-11
  2.5195001E-02    1.2827141E-10
  2.5230000E-02   -2.4782242E-12
  2.5265001E-02   -1.5037066E-10
  2.5300000E-02   -1.1876700E-10
  2.5335001E-02    7.6404098E-11
  2.5370000E-02    1.8570763E-10
  2.5405001E-02    4.0260566E-11
  2.5440000E-02   -1.8761723E-10
  2.5474999E-02   -1.8060234E-10
  2.5510000E-02    7.8752588E-11
  2.5544999E-02    2.4364866E-10
  2.5580000E-02    7.0372271E-11
  2.5614999E-02   -2.1746885E-10
  2.5650000E-02   -2.1734330E-10
  2.5684999E-02    8.4993755E-11
  2.5720000E-02    2.7592478E-10
  2.5754999E-02    8.1122997E-11
  2.5790000E-02   -2.4327418E-10
  2.5824999E-02   -2.4776850E-10
  2.5860000E-02    9.1353362E-11
  2.5895000E-02    3.1622044E-10
  2.5930000E-02    1.0132112E-10
  2.5965000E-02   -2.7468988E-10
  2.6000001E-02   -2.8037139E-10
  2.6035000E-02    1.1730505E-10
  2.6070001E-02    3.6108624E-10
  2.6105000E-02    8.2677865E-11
  2.6140001E-02   -3.3115777E-10
  2.6175000E-02   -2.7135974E-10
  2.6210001E-02    1.8705773E-10
  2.6245000E-02    3.7383180E-10
  2.6280001E-02    1.7089604E-11
  2.6315000E-02   -3.5323477E-10
  2.6350001E-02   -2.0364464E-10
  2.6385000E-02    2.2613603E-10
  2.6419999E-02    3.1431285E-10
  2.6455000E-02   -3.5498285E-11
  2.6489999E-02   -3.1101460E-10
  2.6525000E-02   -1.5013697E-10
  2.6559999E-02    1.9896940E-10
  2.6595000E-02    2.7040578E-10
  2.6629999E-02   -7.5107854E-12
  2.6665000E-02   -2.5930605E-10
  2.6699999E-02   -1.5882187E-10
  2.6735000E-02    1.5727190E-10
  2.6769999E-02    2.6360439E-10
  2.6805000E-02    1.1874984E-11
  2.6839999E-02   -2.5061350E-10
  2.6875000E-02   -1.5604168E-10
  2.6910000E-02    1.5724577E-10
  2.6945001E-02    2.4966509E-10
  2.6980000E-02    1.7855826E-11