 -4.8000002E-03    1.0000000E-24
 -4.7650002E-03    1.0000002E-24
 -4.7300002E-03    1.0000001E-24
 -4.6950001E-03    1.0000002E-24
 -4.6600001E-03    1.0000002E-24
 -4.6250001E-03    1.0000000E-24
 -4.5900000E-03    1.0000000E-24
 -4.5550000E-03    1.0000001E-24
 -4.5200000E-03    1.0000001E-24
 -4.4849999E-03    9.9999972E-25
 -4.4499999E-03    1.0000000E-24
 -4.4149999E-03    1.0000005E-24
 -4.3799998E-03    1.0000006E-24
 -4.3449998E-03    9.9999992E-25
 -4.3100002E-03    9.9999972E-25
 -4.2750002E-03    1.0000005E-24
 -4.2400002E-03    1.0000004E-24
 -4.2050001E-03    9.9999963E-25
 -4.1700001E-03    9.9999963E-25
 -4.1350001E-03    1.0000004E-24
 -4.1000000E-03    1.0000007E-24
 -4.0650000E-03    1.0000002E-24
 -4.0300000E-03    9.9999982E-25
 -3.9949999E-03    9.9999963E-25
 -3.9599999E-03    1.0000000E-24
 -3.9249999E-03    1.0000005E-24
 -3.8900001E-03    1.0000000E-24
 -3.8550000E-03    9.9999963E-25
 -3.8200000E-03    1.0000005E-24
 -3.7849999E-03    1.0000008E-24
 -3.7499999E-03    9.9999972E-25
 -3.7150001E-03    9.9999913E-25
 -3.6800001E-03    1.0000002E-24
 -3.6450000E-03    1.0000008E-24
 -3.6100000E-03    1.0000000E-24
 -3.5750000E-03    9.9999972E-25
 -3.5399999E-03    1.0000005E-24
 -3.5049999E-03    1.0000007E-24
 -3.4700001E-03    1.0000001E-24
 -3.4350001E-03    9.9999943E-25
 -3.4000000E-03    9.9999963E-25
 -3.3650000E-03    1.0000002E-24
 -3.3300000E-03    1.0000002E-24
 -3.2949999E-03    1.0000003E-24
 -3.2599999E-03    1.0000002E-24
 -3.2250001E-03    9.9999992E-25
 -3.1900001E-03    1.0000002E-24
 -3.1550000E-03    1.0000007E-24
 -3.1200000E-03    9.9999982E-25
 -3.0850000E-03    9.9999933E-25
 -3.0499999E-03    1.0000005E-24
 -3.0149999E-03    1.0000012E-24
 -2.9800001E-03    1.0000001E-24
 -2.9450001E-03    9.9999933E-25
 -2.9100000E-03    1.0000001E-24
 -2.8750000E-03    1.0000002E-24
 -2.8400000E-03    9.9999923E-25
 -2.8049999E-03    9.9999923E-25
 -2.7699999E-03    1.0000011E-24
 -2.7350001E-03    1.0000012E-24
 -2.7000001E-03    9.9999982E-25
 -2.6650000E-03    9.9999972E-25
 -2.6300000E-03    1.0000002E-24
 -2.5950000E-03    9.9999972E-25
 -2.5599999E-03    9.9999982E-25
 -2.5249999E-03    1.0000009E-24
 -2.4900001E-03    1.0000007E-24
 -2.4550001E-03    9.9999972E-25
 -2.4200000E-03    1.0000003E-24
 -2.3850000E-03    1.0000011E-24
 -2.3500000E-03    9.9999943E-25
 -2.3149999E-03    9.9999854E-25
 -2.2799999E-03    1.0000004E-24
 -2.2450001E-03    1.0000013E-24
 -2.2100001E-03    9.9999913E-25
 -2.1750000E-03    9.9999893E-25
 -2.1400000E-03    1.0000013E-24
 -2.1050000E-03    1.0000007E-24
 -2.0699999E-03    9.9999824E-25
 -2.0349999E-03    9.9999982E-25
 -2.0000001E-03    1.0000023E-24
 -1.9650001E-03    1.0000007E-24
 -1.9300000E-03    9.9999884E-25
 -1.8950000E-03    1.0000008E-24
 -1.8600000E-03    1.0000015E-24
 -1.8250000E-03    9.9999893E-25
 -1.7900000E-03    9.9999834E-25
 -1.7550000E-03    1.0000008E-24
 -1.7199999E-03    1.0000012E-24
 -1.6850000E-03    1.0000001E-24
 -1.6500000E-03    9.9999972E-25
 -1.6150000E-03    9.9999953E-25
 -1.5800000E-03    9.9999874E-25
 -1.5450000E-03    9.9999972E-25
 -1.5100000E-03    1.0000014E-24
 -1.4750001E-03    1.0000006E-24
 -1.4400000E-03    9.9999953E-25
 -1.4050000E-03    1.0000003E-24
 -1.3700000E-03    1.0000005E-24
 -1.3350000E-03    9.9999903E-25
 -1.3000000E-03    9.9999893E-25
 -1.2650000E-03    1.0000011E-24
 -1.2300001E-03    1.0000021E-24
 -1.1950000E-03    1.0000003E-24
 -1.1600000E-03    9.9999884E-25
 -1.1250000E-03    1.0000001E-24
 -1.0900000E-03    1.0000012E-24
 -1.0550000E-03    1.0000000E-24
 -1.0200000E-03    9.9999884E-25
 -9.8500005E-04    9.9999992E-25
 -9.5000002E-04    1.0000010E-24
 -9.1499998E-04    1.0000001E-24
 -8.8000001E-04    9.9999913E-25
 -8.4499997E-04    9.9999943E-25
 -8.1000000E-04    1.0000002E-24
 -7.7500002E-04    1.0000011E-24
 -7.3999999E-04    1.0000014E-24
 -7.0500001E-04    1.0000001E-24
 -6.6999998E-04    9.9999913E-25
 -6.3500000E-04    1.0000001E-24
 -6.0000003E-04    1.0000009E-24
 -5.6499999E-04    9.9999972E-25
 -5.3000002E-04    9.9999884E-25
 -4.9499999E-04    1.0000004E-24
 -4.6000001E-04    1.0000018E-24
 -4.2500001E-04    1.0000000E-24
 -3.9000000E-04    9.9999815E-25
 -3.5500000E-04    1.0000004E-24
 -3.1999999E-04    1.0000025E-24
 -2.8499999E-04    1.0000003E-24
 -2.5000001E-04    9.9999893E-25
 -2.1499999E-04    1.0000005E-24
 -1.8000000E-04    1.0000003E-24
 -1.4500000E-04    9.9999884E-25
 -1.1000000E-04    9.9999953E-25
 -7.5000004E-05    1.0000012E-24
 -3.9999999E-05    1.0000001E-24
 -4.9999999E-06    9.9999903E-25
  2.9999999E-05    1.0000003E-24
  6.5000000E-05    1.0000009E-24
  9.9999997E-05    9.9999854E-25
  1.3499999E-04    9.9999953E-25
  1.7000000E-04    1.0000033E-24
  2.0500000E-04    1.0000011E-24
  2.3999999E-04    9.9999716E-25
  2.7500000E-04    9.9999992E-25
  3.1000000E-04    1.0000026E-24
  3.4500001E-04    9.9999884E-25
  3.8000001E-04    9.9999746E-25
  4.1499999E-04    1.0000015E-24
  4.4999999E-04    1.0000019E-24
  4.8500000E-04    9.9999874E-25
  5.2000000E-04    9.9999913E-25
  5.5499998E-04    1.0000014E-24
  5.9000001E-04    1.0000008E-24
  6.2499999E-04    9.9999903E-25
  6.6000002E-04    9.9999923E-25
  6.9500000E-04    1.0000005E-24
  7.3000003E-04    1.0000008E-24
  7.6500000E-04    1.0000002E-24
  7.9999998E-04    1.0000001E-24
  8.3500001E-04    1.0000002E-24
  8.6999999E-04    9.9999972E-25
  9.0500002E-04    1.0000000E-24
  9.4000000E-04    1.0000009E-24
  9.7499997E-04    9.9999972E-25
  1.0100000E-03    9.9999884E-25
  1.0450000E-03    1.0000007E-24
  1.0800000E-03    1.0000015E-24
  1.1150000E-03    9.9999923E-25
  1.1500000E-03    9.9999864E-25
  1.1849999E-03    1.0000007E-24
  1.2200000E-03    1.0000006E-24
  1.2550000E-03    9.9999854E-25
  1.2900000E-03    9.9999972E-25
  1.3250000E-03    1.0000020E-24
  1.3600000E-03    1.0000009E-24
  1.3950000E-03    9.9999943E-25
  1.4299999E-03    9.9999982E-25
  1.4650000E-03    1.0000002E-24
  1.5000000E-03    9.9999982E-25
  1.5350000E-03    9.9999982E-25
  1.5700000E-03    1.0000004E-24
  1.6050000E-03    1.0000008E-24
  1.6400000E-03    1.0000005E-24
  1.6749999E-03    9.9999933E-25
  1.7100000E-03    9.9999884E-25
  1.7450000E-03    9.9999933E-25
  1.7800000E-03    1.0000000E-24
  1.8150000E-03    1.0000008E-24
  1.8500000E-03    1.0000013E-24
  1.8850000E-03    9.9999923E-25
  1.9200000E-03    9.9999844E-25
  1.9550000E-03    1.0000016E-24
  1.9900000E-03    1.0000023E-24
  2.0250001E-03    9.9999884E-25
  2.0600001E-03    9.9999923E-25
  2.0949999E-03    1.0000024E-24
  2.1299999E-03    1.0000008E-24
  2.1650000E-03    9.9999765E-25
  2.2000000E-03    9.9999982E-25
  2.2350000E-03    1.0000024E-24
  2.2700001E-03    9.9999972E-25
  2.3050001E-03    9.9999765E-25
  2.3399999E-03    1.0000003E-24
  2.3749999E-03    1.0000018E-24
  2.4100000E-03    9.9999923E-25
  2.4450000E-03    9.9999893E-25
  2.4800000E-03    1.0000011E-24
  2.5150001E-03    1.0000005E-24
  2.5500001E-03    9.9999893E-25
  2.5849999E-03    1.0000005E-24
  2.6199999E-03    1.0000016E-24
  2.6550000E-03    1.0000000E-24
  2.6900000E-03    9.9999903E-25
  2.7250000E-03    1.0000002E-24
  2.7600001E-03    1.0000002E-24
  2.7950001E-03    9.9999923E-25
  2.8299999E-03    9.9999953E-25
  2.8649999E-03    1.0000003E-24
  2.9000000E-03    1.0000007E-24
  2.9350000E-03    1.0000000E-24
  2.9700000E-03    9.9999963E-25
  3.0050001E-03    1.0000002E-24
  3.0400001E-03    1.0000004E-24
  3.0749999E-03    9.9999963E-25
  3.1099999E-03    1.0000011E-24
  3.1450000E-03    1.0000024E-24
  3.1800000E-03    1.0000005E-24
  3.2150000E-03    9.9999874E-25
  3.2500001E-03    1.0000001E-24
  3.2850001E-03    1.0000011E-24
  3.3199999E-03    9.9999972E-25
  3.3549999E-03    9.9999903E-25
  3.3900000E-03    9.9999992E-25
  3.4250000E-03    9.9999953E-25
  3.4600000E-03    9.9999992E-25
  3.4950001E-03    1.0000004E-24
  3.5300001E-03    9.9999963E-25
  3.5649999E-03    1.0000000E-24
  3.5999999E-03    1.0000014E-24
  3.6350000E-03    1.0000000E-24
  3.6700000E-03    9.9999834E-25
  3.7050000E-03    1.0000001E-24
  3.7400001E-03    1.0000016E-24
  3.7750001E-03    1.0000003E-24
  3.8099999E-03    9.9999982E-25
  3.8449999E-03    1.0000011E-24
  3.8800000E-03    1.0000008E-24
  3.9149998E-03    9.9999893E-25
  3.9499998E-03    9.9999864E-25
  3.9849998E-03    1.0000009E-24
  4.0199999E-03    1.0000015E-24
  4.0549999E-03    9.9999933E-25
  4.0899999E-03    9.9999913E-25
  4.1250000E-03    1.0000017E-24
  4.1600000E-03    1.0000007E-24
  4.1950000E-03    9.9999785E-25
  4.2300001E-03    9.9999943E-25
  4.2650001E-03    1.0000014E-24
  4.3000001E-03    1.0000000E-24
  4.3350002E-03    9.9999884E-25
  4.3700002E-03    1.0000009E-24
  4.4049998E-03    1.0000017E-24
  4.4399998E-03    9.9999923E-25
  4.4749998E-03    9.9999923E-25
  4.5099999E-03    1.0000024E-24
  4.5449999E-03    1.0000015E-24
  4.5799999E-03    9.9999736E-25
  4.6150000E-03    9.9999815E-25
  4.6500000E-03    1.0000018E-24
  4.6850001E-03    1.0000002E-24
  4.7200001E-03    9.9999785E-25
  4.7550001E-03    1.0000016E-24
  4.7900002E-03    1.0000034E-24
  4.8250002E-03    9.9999844E-25
  4.8600002E-03    9.9999765E-25
  4.8949998E-03    1.0000018E-24
  4.9299998E-03    1.0000004E-24
  4.9649999E-03    9.9999716E-25
  4.9999999E-03    1.0000012E-24
  5.0349999E-03    1.0000044E-24
  5.0700000E-03    1.0000002E-24
  5.1050000E-03    9.9999706E-25
  5.1400000E-03    9.9999992E-25
  5.1750001E-03    1.0000005E-24
  5.2100001E-03    9.9999903E-25
  5.2450001E-03    1.0000006E-24
  5.2800002E-03    1.0000024E-24
  5.3150002E-03    1.0000003E-24
  5.3500002E-03    9.9999933E-25
  5.3849998E-03    1.0000012E-24
  5.4199998E-03    1.0000009E-24
  5.4549999E-03    9.9999815E-25
  5.4899999E-03    9.9999795E-25
  5.5249999E-03    1.0000006E-24
  5.5600000E-03    1.0000012E-24
  5.5950000E-03    9.9999963E-25
  5.6300000E-03    1.0000001E-24
  5.6650001E-03    1.0000010E-24
  5.7000001E-03    9.9999992E-25
  5.7350001E-03    9.9999844E-25
  5.7700002E-03    9.9999884E-25
  5.8050002E-03    1.0000007E-24
  5.8400002E-03    1.0000022E-24
  5.8749998E-03    1.0000013E-24
  5.9099998E-03    9.9999884E-25
  5.9449999E-03    9.9999953E-25
  5.9799999E-03    1.0000020E-24
  6.0149999E-03    1.0000005E-24
  6.0500000E-03    9.9999805E-25
  6.0850000E-03    9.9999972E-25
  6.1200000E-03    1.0000019E-24
  6.1550001E-03    1.0000004E-24
  6.1900001E-03    9.9999903E-25
  6.2250001E-03    9.9999943E-25
  6.2600002E-03    1.0000000E-24
  6.2950002E-03    1.0000000E-24
  6.3299998E-03    1.0000003E-24
  6.3649998E-03    1.0000004E-24
  6.3999998E-03    9.9999933E-25
  6.4349999E-03    9.9999923E-25
  6.4699999E-03    1.0000014E-24
  6.5049999E-03    1.0000011E-24
  6.5400000E-03    9.9999805E-25
  6.5750000E-03    9.9999963E-25
  6.6100000E-03    1.0000040E-24
  6.6450001E-03    1.0000021E-24
  6.6800001E-03    9.9999765E-25
  6.7150001E-03    9.9999943E-25
  6.7500002E-03    1.0000014E-24
  6.7850002E-03    9.9999834E-25
  6.8199998E-03    9.9999795E-25
  6.8549998E-03    1.0000010E-24
  6.8899998E-03    1.0000014E-24
  6.9249999E-03    9.9999982E-25
  6.9599999E-03    1.0000002E-24
  6.9949999E-03    1.0000004E-24
  7.0300000E-03    9.9999874E-25
  7.0650000E-03    9.9999884E-25
  7.1000000E-03    1.0000010E-24
  7.1350001E-03    1.0000014E-24
  7.1700001E-03    9.9999933E-25
  7.2050001E-03    9.9999953E-25
  7.2400002E-03    1.0000023E-24
  7.2750002E-03    1.0000012E-24
  7.3099998E-03    9.9999785E-25
  7.3449998E-03    9.9999933E-25
  7.3799998E-03    1.0000021E-24
  7.4149999E-03    9.9999933E-25
  7.4499999E-03    9.9999795E-25
  7.4850000E-03    1.0000018E-24
  7.5200000E-03    1.0000021E-24
  7.5550000E-03    9.9999805E-25
  7.5900001E-03    9.9999874E-25
  7.6250001E-03    1.0000022E-24
  7.6600001E-03    9.9999972E-25
  7.6950002E-03    9.9999706E-25
  7.7300002E-03    1.0000011E-24
  7.7650002E-03    1.0000049E-24
  7.7999998E-03    1.0000013E-24
  7.8349998E-03    9.9999746E-25
  7.8699999E-03    9.9999933E-25
  7.9049999E-03    1.0000015E-24
  7.9399999E-03    9.9999943E-25
  7.9750000E-03    9.9999884E-25
  8.0100000E-03    1.0000013E-24
  8.0450000E-03    1.0000018E-24
  8.0800001E-03    9.9999992E-25
  8.1150001E-03    9.9999963E-25
  8.1500001E-03    9.9999903E-25
  8.1850002E-03    9.9999765E-25
  8.2200002E-03    9.9999923E-25
  8.2550002E-03    1.0000023E-24
  8.2900003E-03    1.0000022E-24
  8.3250003E-03    1.0000000E-24
  8.3600003E-03    9.9999864E-25
  8.3950004E-03    9.9999923E-25
  8.4300004E-03    1.0000002E-24
  8.4650004E-03    9.9999893E-25
  8.5000005E-03    9.9999815E-25
  8.5349996E-03    1.0000016E-24
  8.5699996E-03    1.0000041E-24
  8.6049996E-03    9.9999923E-25
  8.6399997E-03    9.9999627E-25
  8.6749997E-03    1.0000005E-24
  8.7099997E-03    1.0000020E-24
  8.7449998E-03    9.9999884E-25
  8.7799998E-03    9.9999933E-25
  8.8149998E-03    1.0000021E-24
  8.8499999E-03    1.0000013E-24
  8.8849999E-03    1.0000000E-24
  8.9199999E-03    1.0000000E-24
  8.9550000E-03    9.9999933E-25
  8.9900000E-03    9.9999913E-25
  9.0250000E-03    1.0000003E-24
  9.0600001E-03    1.0000006E-24
  9.0950001E-03    1.0000001E-24
  9.1300001E-03    9.9999943E-25
  9.1650002E-03    9.9999913E-25
  9.2000002E-03    1.0000004E-24
  9.2350002E-03    1.0000011E-24
  9.2700003E-03    9.9999933E-25
  9.3050003E-03    9.9999884E-25
  9.3400003E-03    1.0000016E-24
  9.3750004E-03    1.0000013E-24
  9.4100004E-03    9.9999824E-25
  9.4450004E-03    1.0000006E-24
  9.4799995E-03    1.0000043E-24
  9.5149996E-03    1.0000007E-24
  9.5499996E-03    9.9999736E-25
  9.5849996E-03    9.9999943E-25
  9.6199997E-03    9.9999913E-25
  9.6549997E-03    9.9999765E-25
  9.6899997E-03    1.0000011E-24
  9.7249998E-03    1.0000025E-24
  9.7599998E-03    9.9999864E-25
  9.7949998E-03    9.9999933E-25
  9.8299999E-03    1.0000019E-24
  9.8649999E-03    1.0000003E-24
  9.8999999E-03    9.9999982E-25
  9.9350000E-03    1.0000018E-24
  9.9700000E-03    1.0000011E-24
  1.0005000E-02    9.9999923E-25
  1.0040000E-02    9.9999933E-25
  1.0075000E-02    9.9999923E-25
  1.0110000E-02    9.9999844E-25
  1.0145000E-02    9.9999854E-25
  1.0180000E-02    1.0000007E-24
  1.0215000E-02    1.0000032E-24
  1.0250000E-02    1.0000017E-24
  1.0285000E-02    9.9999844E-25
  1.0320000E-02    9.9999795E-25
  1.0355000E-02    1.0000000E-24
  1.0390000E-02    1.0000006E-24
  1.0425000E-02    9.9999943E-25
  1.0460000E-02    9.9999992E-25
  1.0495000E-02    1.0000015E-24
  1.0530000E-02    1.0000007E-24
  1.0565000E-02    9.9999785E-25
  1.0600000E-02    9.9999765E-25
  1.0635000E-02    1.0000013E-24
  1.0670000E-02    1.0000025E-24
  1.0705000E-02    1.0000005E-24
  1.0740000E-02    1.0000010E-24
  1.0775000E-02    1.0000017E-24
  1.0810000E-02    9.9999844E-25
  1.0845000E-02    9.9999765E-25
  1.0880000E-02    1.0000012E-24
  1.0915000E-02    1.0000009E-24
  1.0950000E-02    9.9999854E-25
  1.0985000E-02    1.0000020E-24
  1.1020000E-02    1.0000047E-24
  1.1055000E-02    9.9999874E-25
  1.1090000E-02    9.9999460E-25
  1.1125000E-02    1.0000003E-24
  1.1160000E-02    1.0000035E-24
  1.1195000E-02    9.9999815E-25
  1.1230000E-02    9.9999657E-25
  1.1265000E-02    1.0000024E-24
  1.1300000E-02    1.0000036E-24
  1.1335000E-02    9.9999736E-25
  1.1370000E-02    9.9999608E-25
  1.1405000E-02    1.0000019E-24
  1.1440000E-02    1.0000024E-24
  1.1475000E-02    9.9999785E-25
  1.1510000E-02    1.0000012E-24
  1.1545000E-02    1.0000052E-24
  1.1580000E-02    9.9999844E-25
  1.1615000E-02    9.9999588E-25
  1.1650000E-02    1.0000062E-24
  1.1685000E-02    1.0000028E-24
  1.1720000E-02    9.9998513E-25
  1.1755000E-02    9.9999637E-25
  1.1790000E-02    1.0000249E-24
  1.1825000E-02    1.0000033E-24
  1.1860000E-02    9.9996294E-25
  1.1895000E-02    1.0000011E-24
  1.1930000E-02    1.0000545E-24
  1.1965000E-02    9.9999026E-25
  1.2000000E-02    9.9992320E-25
  1.2035000E-02    1.0000282E-24
  1.2070000E-02    1.0001095E-24
  1.2105000E-02    9.9994766E-25
  1.2140000E-02    9.9985300E-25
  1.2175000E-02    1.0000883E-24
  1.2210000E-02    1.0001898E-24
  1.2245000E-02    9.9985881E-25
  1.2280000E-02    9.9976238E-25
  1.2315000E-02    1.0002158E-24
  1.2350000E-02    1.0002904E-24
  1.2385000E-02    9.9968872E-25
  1.2420000E-02    9.9965884E-25
  1.2455000E-02    1.0004245E-24
  1.2490000E-02    1.0003743E-24
  1.2525000E-02    9.9944772E-25
  1.2560000E-02    9.9962718E-25
  1.2595000E-02    1.0006752E-24
  1.2630000E-02    1.0003020E-24
  1.2665000E-02    9.9923877E-25
  1.2700000E-02    9.9989421E-25
  1.2735000E-02    1.0007580E-24
  1.2770000E-02    9.9970094E-25
  1.2805000E-02    9.9942198E-25
  1.2840000E-02    1.0010505E-24
  1.2875000E-02    1.0000990E-24
  1.2910000E-02    9.9764113E-25
  1.2945000E-02    1.0008364E-24
  1.2980000E-02    1.0045326E-24
  1.3015000E-02    9.9758453E-25
  1.3050000E-02    9.9199012E-25
  1.3085000E-02    1.0048331E-24
  1.3120000E-02    1.0133969E-24
  1.3155000E-02    9.9176697E-25
  1.3190000E-02    9.7851559E-25
  1.3225000E-02    1.0126134E-24
  1.3260000E-02    1.0332362E-24
  1.3295000E-02    9.8232362E-25
  1.3330000E-02    9.5029212E-25
  1.3365000E-02    1.0226145E-24
  1.3400000E-02    1.0718434E-24
  1.3435000E-02    9.7415832E-25
  1.3470000E-02    8.9992108E-25
  1.3505000E-02    1.0246990E-24
  1.3540000E-02    1.1336749E-24
  1.3575000E-02    9.8480912E-25
  1.3610000E-02    8.3035085E-25
  1.3645000E-02    9.9190493E-25
  1.3680000E-02    1.2012375E-24
  1.3715000E-02    1.0516558E-24
  1.3750000E-02    7.8415639E-25
  1.3785000E-02    8.7798473E-25
  1.3820000E-02    1.1925453E-24
  1.3855000E-02    1.2235036E-24
  1.3890000E-02    9.0060739E-25
  1.3925000E-02    6.4570203E-25
  1.3960000E-02    8.9115832E-25
  1.3995000E-02    1.5002662E-24
  1.4030000E-02    1.4914857E-24
  1.4065000E-02    3.7381278E-25
  1.4100000E-02   -1.1969981E-25
  1.4135000E-02    1.6644373E-24
  1.4170000E-02    3.0688300E-24
  1.4205000E-02    4.9790844E-25
  1.4240000E-02   -2.4025518E-24
  1.4275000E-02    9.6872021E-25
  1.4310000E-02    6.1455676E-24
  1.4345000E-02    2.1707042E-24
  1.4380000E-02   -6.2420398E-24
  1.4415000E-02   -2.2106807E-24
  1.4450000E-02    1.0498475E-23
  1.4485000E-02    7.4776898E-24
  1.4520000E-02   -1.0512929E-23
  1.4555000E-02   -1.0266905E-23
  1.4590000E-02    1.3598274E-23
  1.4625000E-02    1.8727965E-23
  1.4660000E-02   -1.0715719E-23
  1.4695000E-02   -2.4684871E-23
  1.4730000E-02    8.4465917E-24
  1.4765000E-02    3.5380629E-23
  1.4800000E-02    2.9557029E-24
  1.4835000E-02   -4.1149954E-23
  1.4870000E-02   -1.7377497E-23
  1.4905000E-02    4.7045847E-23
  1.4940000E-02    4.4453240E-23
  1.4975000E-02   -4.0481865E-23
  1.5010000E-02   -7.6902566E-23
  1.5045000E-02    2.3000158E-23
  1.5080000E-02    1.2154528E-22
  1.5115000E-02    2.1664670E-23
  1.5150000E-02   -1.6598988E-22
  1.5185000E-02   -9.4992983E-23
  1.5220000E-02    2.0907885E-22
  1.5255000E-02    2.1427461E-22
  1.5290000E-02   -2.2731162E-22
  1.5325000E-02   -3.7808967E-22
  1.5360000E-02    2.0565986E-22
  1.5395000E-02    5.9443105E-22
  1.5430000E-02   -1.0542577E-22
  1.5465000E-02   -8.4338687E-22
  1.5500000E-02   -1.0194496E-22
  1.5535000E-02    1.1026329E-21
  1.5570000E-02    4.6197335E-22
  1.5605000E-02   -1.3085011E-21
  1.5640000E-02   -9.9597059E-22
  1.5675001E-02    1.3821381E-21
  1.5710000E-02    1.7185457E-21
  1.5745001E-02   -1.1951835E-21
  1.5780000E-02   -2.5853827E-21
  1.5814999E-02    6.0639230E-22
  1.5850000E-02    3.5000855E-21
  1.5884999E-02    5.5451484E-22
  1.5920000E-02   -4.2548591E-21
  1.5954999E-02   -2.4231507E-21
  1.5990000E-02    4.5385873E-21
  1.6024999E-02    5.0809303E-21
  1.6060000E-02   -3.8933218E-21
  1.6094999E-02   -8.4499884E-21
  1.6130000E-02    1.7599162E-21
  1.6164999E-02    1.2233372E-20
  1.6200000E-02    2.4993333E-21
  1.6235000E-02   -1.5782637E-20
  1.6270000E-02   -9.4560654E-21
  1.6305000E-02    1.8041176E-20
  1.6340001E-02    1.9462747E-20
  1.6375000E-02   -1.7468250E-20
  1.6410001E-02   -3.2357506E-20
  1.6445000E-02    1.2117641E-20
  1.6480001E-02    4.7165990E-20
  1.6515000E-02    2.0059724E-22
  1.6550001E-02   -6.1710420E-20
  1.6585000E-02   -2.1488353E-20
  1.6620001E-02    7.2328673E-20
  1.6655000E-02    5.2938596E-20
  1.6690001E-02   -7.3693773E-20
  1.6725000E-02   -9.3984365E-20
  1.6759999E-02    5.9023925E-20
  1.6795000E-02    1.4119668E-19
  1.6829999E-02   -2.0747481E-20
  1.6865000E-02   -1.8705066E-19
  1.6899999E-02   -4.8057368E-20
  1.6935000E-02    2.1896360E-19
  1.6969999E-02    1.5144034E-19
  1.7005000E-02   -2.1889637E-19
  1.7039999E-02   -2.8744475E-19
  1.7075000E-02    1.6419845E-19
  1.7109999E-02    4.4442341E-19
  1.7145000E-02   -3.0191805E-20
  1.7180000E-02   -5.9724906E-19
  1.7215000E-02   -2.0480435E-19
  1.7250000E-02    7.0454219E-19
  1.7285001E-02    5.5181948E-19
  1.7320000E-02   -7.0822408E-19
  1.7355001E-02   -1.0010170E-18
  1.7390000E-02    5.3731362E-19
  1.7425001E-02    1.5100910E-18
  1.7460000E-02   -1.1771393E-19
  1.7495001E-02   -1.9933082E-18
  1.7530000E-02   -6.1038846E-19
  1.7565001E-02    2.3147919E-18
  1.7600000E-02    1.6672027E-18
  1.7635001E-02   -2.2906145E-18
  1.7670000E-02   -3.0014830E-18
  1.7704999E-02    1.7052180E-18
  1.7740000E-02    4.4565791E-18
  1.7774999E-02   -3.4714855E-19
  1.7810000E-02   -5.7421042E-18
  1.7844999E-02   -1.9326721E-18
  1.7880000E-02    6.4228254E-18
  1.7914999E-02    5.1413423E-18
  1.7950000E-02   -5.9389318E-18
  1.7984999E-02   -9.0506207E-18
  1.8020000E-02    3.6727692E-18
  1.8054999E-02    1.3106550E-17
  1.8090000E-02    9.2632876E-19
  1.8124999E-02   -1.6368425E-17
  1.8160000E-02   -8.1557287E-18
  1.8195000E-02    1.7512596E-17
  1.8230001E-02    1.7823558E-17
  1.8265000E-02   -1.4940902E-17
  1.8300001E-02   -2.8995827E-17
  1.8335000E-02    7.0300401E-18
  1.8370001E-02    3.9784840E-17
  1.8405000E-02    7.4584295E-18
  1.8440001E-02   -4.7261639E-17
  1.8475000E-02   -2.8819413E-17
  1.8510001E-02    4.7592273E-17
  1.8545000E-02    5.5757426E-17
  1.8580001E-02   -3.6496784E-17
  1.8615000E-02   -8.4772758E-17
  1.8650001E-02    1.0101362E-17
  1.8685000E-02    1.0976583E-16
  1.8719999E-02    3.3811398E-17
  1.8755000E-02   -1.2209534E-16
  1.8789999E-02   -9.4254802E-17
  1.8825000E-02    1.1134142E-16
  1.8859999E-02    1.6543415E-16
  1.8895000E-02   -6.6979838E-17
  1.8929999E-02   -2.3548252E-16
  1.8965000E-02   -1.8954539E-17
  1.8999999E-02    2.8606841E-16
  1.9035000E-02    1.4836019E-16
  1.9069999E-02   -2.9347593E-16
  1.9105000E-02   -3.1317047E-16
  1.9140000E-02    2.3169877E-16
  1.9175000E-02    4.9188050E-16
  1.9210000E-02   -7.7851976E-17
  1.9245001E-02   -6.4765129E-16
  1.9280000E-02   -1.8024590E-16
  1.9315001E-02    7.2935736E-16
  1.9350000E-02    5.3513286E-16
  1.9385001E-02   -6.7690241E-16
  1.9420000E-02   -9.5101005E-16
  1.9455001E-02    4.3170919E-16
  1.9490000E-02    1.3577065E-15
  1.9525001E-02    4.7601716E-17
  1.9560000E-02   -1.6502787E-15
  1.9595001E-02   -7.6568565E-16
  1.9630000E-02    1.6973036E-15
  1.9664999E-02    1.6701575E-15
  1.9700000E-02   -1.3602294E-15
  1.9734999E-02   -2.6353272E-15
  1.9770000E-02    5.2447407E-16
  1.9804999E-02    3.4562457E-15
  1.9840000E-02    8.5976475E-16
  1.9874999E-02   -3.8597928E-15
  1.9910000E-02   -2.7325590E-15
  1.9944999E-02    3.5384916E-15
  1.9980000E-02    4.8845608E-15
  2.0014999E-02   -2.2096697E-15
  2.0050000E-02   -6.9352741E-15
  2.0085000E-02   -3.0267539E-16
  2.0120000E-02    8.3435007E-15
  2.0155000E-02    3.9730148E-15
  2.0190001E-02   -8.4627883E-15
  2.0225000E-02   -8.4841471E-15
  2.0260001E-02    6.6493230E-15
  2.0295000E-02    1.3166594E-14
  2.0330001E-02   -2.4198522E-15
  2.0365000E-02   -1.6996512E-14
  2.0400001E-02   -4.3565759E-15
  2.0435000E-02    1.8679606E-14
  2.0470001E-02    1.3265161E-14
  2.0505000E-02   -1.6839420E-14
  2.0540001E-02   -2.3197373E-14
  2.0575000E-02    1.0310515E-14
  2.0609999E-02    3.2305298E-14
  2.0645000E-02    1.4891037E-15
  2.0679999E-02   -3.8114724E-14
  2.0715000E-02   -1.8162700E-14
  2.0749999E-02    3.7838690E-14
  2.0785000E-02    3.8003512E-14
  2.0819999E-02   -2.8901218E-14
  2.0855000E-02   -5.7835376E-14
  2.0889999E-02    9.6336471E-15
  2.0925000E-02    7.3136606E-14
  2.0959999E-02    1.9952640E-14
  2.0995000E-02   -7.8535479E-14
  2.1029999E-02   -5.7471822E-14
  2.1065000E-02    6.8710838E-14
  2.1100000E-02    9.7746233E-14
  2.1135001E-02   -3.9646671E-14
  2.1170000E-02   -1.3287777E-13
  2.1205001E-02   -9.9176470E-15
  2.1240000E-02    1.5298544E-13
  2.1275001E-02    7.7109014E-14
  2.1310000E-02   -1.4769494E-13
  2.1345001E-02   -1.5396910E-13
  2.1380000E-02    1.0831857E-13
  2.1415001E-02    2.2731806E-13
  2.1450000E-02   -3.0474453E-14
  2.1485001E-02   -2.7977425E-13
  2.1520000E-02   -8.3305284E-14
  2.1555001E-02    2.9212030E-13
  2.1590000E-02    2.2159180E-13
  2.1624999E-02   -2.4695786E-13
  2.1660000E-02   -3.6339174E-13
  2.1694999E-02    1.3326464E-13
  2.1730000E-02    4.7942103E-13
  2.1764999E-02    4.8880730E-14
  2.1800000E-02   -5.3570782E-13
  2.1834999E-02   -2.8443938E-13
  2.1870000E-02    4.9950441E-13
  2.1904999E-02    5.4160344E-13
  2.1940000E-02   -3.4693374E-13
  2.1974999E-02   -7.7314365E-13
  2.2010000E-02    7.1206848E-14
  2.2045000E-02    9.2165566E-13
  2.2080000E-02    3.1027532E-13
  2.2115000E-02   -9.2878277E-13
  2.2150001E-02   -7.5190667E-13
  2.2185000E-02    7.4760082E-13
  2.2220001E-02    1.1808334E-12
  2.2255000E-02   -3.5636579E-13
  2.2290001E-02   -1.5042184E-12
  2.2325000E-02   -2.2904080E-13
  2.2360001E-02    1.6231100E-12
  2.2395000E-02    9.4714796E-13
  2.2430001E-02   -1.4517993E-12
  2.2465000E-02   -1.6905125E-12
  2.2500001E-02    9.3997748E-13
  2.2535000E-02    2.3152088E-12
  2.2569999E-02   -9.3590229E-14
  2.2605000E-02   -2.6608999E-12
  2.2639999E-02   -1.0105583E-12
  2.2675000E-02    2.5800336E-12
  2.2709999E-02    2.2213906E-12
  2.2745000E-02   -1.9722579E-12
  2.2779999E-02   -3.3250804E-12
  2.2815000E-02    8.1795790E-13
  2.2849999E-02    4.0729512E-12
  2.2885000E-02    7.9657629E-13
  2.2919999E-02   -4.2239437E-12
  2.2955000E-02   -2.6699192E-12
  2.2990000E-02    3.5961796E-12
  2.3025000E-02    4.4981445E-12
  2.3060000E-02   -2.1188257E-12
  2.3095001E-02   -5.9119502E-12
  2.3130000E-02   -1.2672461E-13
  2.3165001E-02    6.5361653E-12
  2.3200000E-02    2.8875233E-12
  2.3235001E-02   -6.0642728E-12
  2.3270000E-02   -5.7507072E-12
  2.3305001E-02    4.3356607E-12
  2.3340000E-02    8.1904978E-12
  2.3375001E-02   -1.4000614E-12
  2.3410000E-02   -9.6484305E-12
  2.3445001E-02   -2.4469140E-12
  2.3480000E-02    9.6372389E-12
  2.3514999E-02    6.6705079E-12
  2.3550000E-02   -7.8518208E-12
  2.3584999E-02   -1.0552975E-11
  2.3620000E-02    4.2660060E-12
  2.3654999E-02    1.3297456E-11
  2.3690000E-02    8.0729472E-13
  2.3724999E-02   -1.4167614E-11
  2.3760000E-02   -6.7117006E-12
  2.3794999E-02    1.2641535E-11
  2.3830000E-02    1.2509768E-11
  2.3864999E-02   -8.5516464E-12
  2.3900000E-02   -1.7111696E-11
  2.3934999E-02    2.1803293E-12
  2.3970000E-02    1.9456301E-11
  2.4005000E-02    5.7153496E-12
  2.4040001E-02   -1.8717238E-11
  2.4075000E-02   -1.3966331E-11
  2.4110001E-02    1.4498242E-11
  2.4145000E-02    2.1143648E-11
  2.4180001E-02   -6.9774611E-12
  2.4215000E-02   -2.5784264E-11
  2.4250001E-02   -3.0349362E-12
  2.4285000E-02    2.6658249E-11
  2.4320001E-02    1.4150098E-11
  2.4355000E-02   -2.3032038E-11
  2.4390001E-02   -2.4570748E-11
  2.4425000E-02    1.4876763E-11
  2.4460001E-02    3.2362484E-11
  2.4495000E-02   -2.9742504E-12
  2.4529999E-02   -3.5788487E-11
  2.4565000E-02   -1.1113271E-11
  2.4599999E-02    3.3652973E-11
  2.4635000E-02    2.5222439E-11
  2.4669999E-02   -2.5589472E-11
  2.4705000E-02   -3.6901964E-11
  2.4739999E-02    1.2233086E-11
  2.4775000E-02    4.3818397E-11
  2.4809999E-02    4.7702818E-12
  2.4845000E-02   -4.4189232E-11
  2.4879999E-02   -2.2938542E-11
  2.4915000E-02    3.7165940E-11
  2.4950000E-02    3.9300892E-11
  2.4985000E-02   -2.3089829E-11
  2.5020000E-02   -5.0872525E-11
  2.5055001E-02    3.5591415E-12
  2.5090000E-02    5.5181880E-11
  2.5125001E-02    1.8724624E-11
  2.5160000E-02   -5.0758137E-11
  2.5195001E-02   -4.0324868E-11
  2.5230000E-02    3.7484515E-11
  2.5265001E-02    5.7604178E-11
  2.5300000E-02   -1.6740184E-11
  2.5335001E-02   -6.7341237E-11
  2.5370000E-02   -8.7136513E-12
  2.5405001E-02    6.7323126E-11
  2.5440000E-02    3.5102404E-11
  2.5474999E-02   -5.6803038E-11
  2.5510000E-02   -5.8212629E-11
  2.5544999E-02    3.6730362E-11
  2.5580000E-02    7.4081040E-11
  2.5614999E-02   -9.6977521E-12
  2.5650000E-02   -7.9680013E-11
  2.5684999E-02   -2.0400534E-11
  2.5720000E-02    7.3476523E-11
  2.5754999E-02    4.8951176E-11
  2.5790000E-02   -5.5759623E-11
  2.5824999E-02   -7.1350738E-11
  2.5860000E-02    2.8671451E-11
  2.5895000E-02    8.3758486E-11
  2.5930000E-02    4.0714316E-12
  2.5965000E-02   -8.3742999E-11
  2.6000001E-02   -3.7723571E-11
  2.6035000E-02    7.0711249E-11
  2.6070001E-02    6.7233122E-11
  2.6105000E-02   -4.6047995E-11
  2.6140001E-02   -8.8021708E-11
  2.6175000E-02    1.2943960E-11
  2.6210001E-02    9.6695561E-11
  2.6245000E-02    2.4056054E-11
  2.6280001E-02   -9.1576885E-11
  2.6315000E-02   -5.9709300E-11
  2.6350001E-02    7.2979615E-11
  2.6385000E-02    8.8832823E-11
  2.6419999E-02   -4.3195995E-11
  2.6455000E-02   -1.0705166E-10
  2.6489999E-02    6.2046206E-12
  2.6525000E-02    1.1143615E-10
  2.6559999E-02    3.2853532E-11
  2.6595000E-02   -1.0094956E-10
  2.6629999E-02   -6.8361955E-11
  2.6665000E-02    7.6653323E-11
  2.6699999E-02    9.4996476E-11
  2.6735000E-02   -4.1643088E-11
  2.6769999E-02   -1.0848730E-10
  2.6805000E-02    7.1237580E-13
  2.6839999E-02    1.0628719E-10
  2.6875000E-02    4.0239305E-11
  2.6910000E-02   -8.8053988E-11
  2.6945001E-02   -7.5005897E-11
  2.6980000E-02    5.5861697E-11