 -4.8000002E-03    1.0000000E-24
 -4.7650002E-03    1.0000002E-24
 -4.7300002E-03    1.0000001E-24
 -4.6950001E-03    1.0000000E-24
 -4.6600001E-03    1.0000002E-24
 -4.6250001E-03    1.0000002E-24
 -4.5900000E-03    1.0000001E-24
 -4.5550000E-03    1.0000001E-24
 -4.5200000E-03    9.9999982E-25
 -4.4849999E-03    1.0000001E-24
 -4.4499999E-03    1.0000002E-24
 -4.4149999E-03    9.9999992E-25
 -4.3799998E-03    9.9999982E-25
 -4.3449998E-03    1.0000003E-24
 -4.3100002E-03    1.0000005E-24
 -4.2750002E-03    1.0000000E-24
 -4.2400002E-03    9.9999992E-25
 -4.2050001E-03    1.0000002E-24
 -4.1700001E-03    1.0000002E-24
 -4.1350001E-03    9.9999972E-25
 -4.1000000E-03    9.9999982E-25
 -4.0650000E-03    1.0000002E-24
 -4.0300000E-03    1.0000001E-24
 -3.9949999E-03    9.9999972E-25
 -3.9599999E-03    1.0000000E-24
 -3.9249999E-03    1.0000002E-24
 -3.8900001E-03    9.9999992E-25
 -3.8550000E-03    1.0000000E-24
 -3.8200000E-03    1.0000004E-24
 -3.7849999E-03    1.0000002E-24
 -3.7499999E-03    9.9999972E-25
 -3.7150001E-03    1.0000002E-24
 -3.6800001E-03    1.0000007E-24
 -3.6450000E-03    9.9999982E-25
 -3.6100000E-03    9.9999963E-25
 -3.5750000E-03    1.0000002E-24
 -3.5399999E-03    1.0000000E-24
 -3.5049999E-03    9.9999972E-25
 -3.4700001E-03    1.0000007E-24
 -3.4350001E-03    1.0000005E-24
 -3.4000000E-03    9.9999953E-25
 -3.3650000E-03    9.9999982E-25
 -3.3300000E-03    1.0000004E-24
 -3.2949999E-03    9.9999982E-25
 -3.2599999E-03    9.9999982E-25
 -3.2250001E-03    1.0000005E-24
 -3.1900001E-03    1.0000007E-24
 -3.1550000E-03    9.9999953E-25
 -3.1200000E-03    9.9999953E-25
 -3.0850000E-03    1.0000007E-24
 -3.0499999E-03    1.0000010E-24
 -3.0149999E-03    9.9999933E-25
 -2.9800001E-03    9.9999923E-25
 -2.9450001E-03    1.0000012E-24
 -2.9100000E-03    1.0000006E-24
 -2.8750000E-03    9.9999884E-25
 -2.8400000E-03    1.0000002E-24
 -2.8049999E-03    1.0000013E-24
 -2.7699999E-03    9.9999963E-25
 -2.7350001E-03    9.9999933E-25
 -2.7000001E-03    1.0000008E-24
 -2.6650000E-03    1.0000011E-24
 -2.6300000E-03    9.9999972E-25
 -2.5950000E-03    9.9999972E-25
 -2.5599999E-03    1.0000002E-24
 -2.5249999E-03    9.9999943E-25
 -2.4900001E-03    9.9999943E-25
 -2.4550001E-03    1.0000003E-24
 -2.4200000E-03    1.0000008E-24
 -2.3850000E-03    1.0000005E-24
 -2.3500000E-03    9.9999982E-25
 -2.3149999E-03    9.9999953E-25
 -2.2799999E-03    9.9999963E-25
 -2.2450001E-03    9.9999972E-25
 -2.2100001E-03    1.0000003E-24
 -2.1750000E-03    1.0000008E-24
 -2.1400000E-03    1.0000002E-24
 -2.1050000E-03    1.0000002E-24
 -2.0699999E-03    1.0000010E-24
 -2.0349999E-03    1.0000003E-24
 -2.0000001E-03    9.9999943E-25
 -1.9650001E-03    1.0000001E-24
 -1.9300000E-03    1.0000002E-24
 -1.8950000E-03    9.9999923E-25
 -1.8600000E-03    9.9999943E-25
 -1.8250000E-03    1.0000007E-24
 -1.7900000E-03    1.0000006E-24
 -1.7550000E-03    9.9999953E-25
 -1.7199999E-03    9.9999992E-25
 -1.6850000E-03    1.0000004E-24
 -1.6500000E-03    1.0000000E-24
 -1.6150000E-03    9.9999953E-25
 -1.5800000E-03    9.9999953E-25
 -1.5450000E-03    1.0000001E-24
 -1.5100000E-03    1.0000006E-24
 -1.4750001E-03    1.0000005E-24
 -1.4400000E-03    1.0000000E-24
 -1.4050000E-03    1.0000007E-24
 -1.3700000E-03    1.0000007E-24
 -1.3350000E-03    9.9999923E-25
 -1.3000000E-03    9.9999844E-25
 -1.2650000E-03    9.9999963E-25
 -1.2300001E-03    1.0000005E-24
 -1.1950000E-03    1.0000003E-24
 -1.1600000E-03    1.0000002E-24
 -1.1250000E-03    1.0000006E-24
 -1.0900000E-03    1.0000010E-24
 -1.0550000E-03    1.0000000E-24
 -1.0200000E-03    9.9999874E-25
 -9.8500005E-04    9.9999953E-25
 -9.5000002E-04    1.0000007E-24
 -9.1499998E-04    1.0000004E-24
 -8.8000001E-04    9.9999953E-25
 -8.4499997E-04    9.9999933E-25
 -8.1000000E-04    1.0000002E-24
 -7.7500002E-04    1.0000013E-24
 -7.3999999E-04    1.0000003E-24
 -7.0500001E-04    9.9999903E-25
 -6.6999998E-04    1.0000005E-24
 -6.3500000E-04    1.0000005E-24
 -6.0000003E-04    9.9999943E-25
 -5.6499999E-04    1.0000002E-24
 -5.3000002E-04    1.0000010E-24
 -4.9499999E-04    1.0000005E-24
 -4.6000001E-04    1.0000005E-24
 -4.2500001E-04    9.9999963E-25
 -3.9000000E-04    9.9999854E-25
 -3.5500000E-04    1.0000004E-24
 -3.1999999E-04    1.0000013E-24
 -2.8499999E-04    9.9999953E-25
 -2.5000001E-04    9.9999982E-25
 -2.1499999E-04    1.0000010E-24
 -1.8000000E-04    9.9999933E-25
 -1.4500000E-04    9.9999834E-25
 -1.1000000E-04    1.0000008E-24
 -7.5000004E-05    1.0000014E-24
 -3.9999999E-05    9.9999963E-25
 -4.9999999E-06    1.0000001E-24
  2.9999999E-05    1.0000007E-24
  6.5000000E-05    9.9999933E-25
  9.9999997E-05    9.9999963E-25
  1.3499999E-04    1.0000012E-24
  1.7000000E-04    1.0000001E-24
  2.0500000E-04    9.9999923E-25
  2.3999999E-04    1.0000004E-24
  2.7500000E-04    1.0000000E-24
  3.1000000E-04    9.9999884E-25
  3.4500001E-04    1.0000006E-24
  3.8000001E-04    1.0000016E-24
  4.1499999E-04    9.9999943E-25
  4.4999999E-04    9.9999884E-25
  4.8500000E-04    1.0000012E-24
  5.2000000E-04    1.0000011E-24
  5.5499998E-04    9.9999884E-25
  5.9000001E-04    1.0000000E-24
  6.2499999E-04    1.0000022E-24
  6.6000002E-04    9.9999943E-25
  6.9500000E-04    9.9999815E-25
  7.3000003E-04    1.0000012E-24
  7.6500000E-04    1.0000008E-24
  7.9999998E-04    9.9999874E-25
  8.3500001E-04    1.0000004E-24
  8.6999999E-04    1.0000016E-24
  9.0500002E-04    9.9999933E-25
  9.4000000E-04    9.9999933E-25
  9.7499997E-04    1.0000009E-24
  1.0100000E-03    1.0000003E-24
  1.0450000E-03    9.9999953E-25
  1.0800000E-03    1.0000002E-24
  1.1150000E-03    1.0000002E-24
  1.1500000E-03    1.0000006E-24
  1.1849999E-03    1.0000003E-24
  1.2200000E-03    1.0000000E-24
  1.2550000E-03    9.9999992E-25
  1.2900000E-03    9.9999963E-25
  1.3250000E-03    9.9999972E-25
  1.3600000E-03    9.9999982E-25
  1.3950000E-03    9.9999923E-25
  1.4299999E-03    9.9999972E-25
  1.4650000E-03    1.0000010E-24
  1.5000000E-03    1.0000000E-24
  1.5350000E-03    9.9999953E-25
  1.5700000E-03    1.0000011E-24
  1.6050000E-03    1.0000002E-24
  1.6400000E-03    9.9999834E-25
  1.6749999E-03    1.0000015E-24
  1.7100000E-03    1.0000023E-24
  1.7450000E-03    9.9999854E-25
  1.7800000E-03    9.9999933E-25
  1.8150000E-03    1.0000015E-24
  1.8500000E-03    9.9999815E-25
  1.8850000E-03    9.9999884E-25
  1.9200000E-03    1.0000036E-24
  1.9550000E-03    1.0000014E-24
  1.9900000E-03    9.9999785E-25
  2.0250001E-03    1.0000006E-24
  2.0600001E-03    1.0000012E-24
  2.0949999E-03    9.9999834E-25
  2.1299999E-03    9.9999953E-25
  2.1650000E-03    1.0000027E-24
  2.2000000E-03    1.0000008E-24
  2.2350000E-03    9.9999874E-25
  2.2700001E-03    1.0000001E-24
  2.3050001E-03    1.0000003E-24
  2.3399999E-03    9.9999785E-25
  2.3749999E-03    9.9999913E-25
  2.4100000E-03    1.0000022E-24
  2.4450000E-03    1.0000002E-24
  2.4800000E-03    9.9999844E-25
  2.5150001E-03    1.0000014E-24
  2.5500001E-03    1.0000006E-24
  2.5849999E-03    9.9999647E-25
  2.6199999E-03    1.0000000E-24
  2.6550000E-03    1.0000035E-24
  2.6900000E-03    9.9999893E-25
  2.7250000E-03    9.9999805E-25
  2.7600001E-03    1.0000038E-24
  2.7950001E-03    1.0000023E-24
  2.8299999E-03    9.9999706E-25
  2.8649999E-03    9.9999972E-25
  2.9000000E-03    1.0000022E-24
  2.9350000E-03    9.9999824E-25
  2.9700000E-03    9.9999854E-25
  3.0050001E-03    1.0000022E-24
  3.0400001E-03    1.0000003E-24
  3.0749999E-03    9.9999903E-25
  3.1099999E-03    1.0000020E-24
  3.1450000E-03    1.0000009E-24
  3.1800000E-03    9.9999755E-25
  3.2150000E-03    9.9999972E-25
  3.2500001E-03    1.0000016E-24
  3.2850001E-03    9.9999953E-25
  3.3199999E-03    9.9999864E-25
  3.3549999E-03    9.9999992E-25
  3.3900000E-03    1.0000000E-24
  3.4250000E-03    9.9999972E-25
  3.4600000E-03    1.0000010E-24
  3.4950001E-03    1.0000020E-24
  3.5300001E-03    1.0000005E-24
  3.5649999E-03    9.9999874E-25
  3.5999999E-03    9.9999943E-25
  3.6350000E-03    1.0000005E-24
  3.6700000E-03    9.9999953E-25
  3.7050000E-03    1.0000000E-24
  3.7400001E-03    1.0000018E-24
  3.7750001E-03    1.0000002E-24
  3.8099999E-03    9.9999884E-25
  3.8449999E-03    1.0000013E-24
  3.8800000E-03    1.0000008E-24
  3.9149998E-03    9.9999795E-25
  3.9499998E-03    1.0000001E-24
  3.9849998E-03    1.0000021E-24
  4.0199999E-03    9.9999963E-25
  4.0549999E-03    1.0000002E-24
  4.0899999E-03    1.0000017E-24
  4.1250000E-03    9.9999933E-25
  4.1600000E-03    9.9999884E-25
  4.1950000E-03    1.0000013E-24
  4.2300001E-03    9.9999982E-25
  4.2650001E-03    9.9999854E-25
  4.3000001E-03    1.0000009E-24
  4.3350002E-03    1.0000011E-24
  4.3700002E-03    9.9999913E-25
  4.4049998E-03    9.9999963E-25
  4.4399998E-03    1.0000016E-24
  4.4749998E-03    1.0000011E-24
  4.5099999E-03    9.9999903E-25
  4.5449999E-03    9.9999903E-25
  4.5799999E-03    1.0000004E-24
  4.6150000E-03    1.0000000E-24
  4.6500000E-03    1.0000000E-24
  4.6850001E-03    1.0000013E-24
  4.7200001E-03    1.0000002E-24
  4.7550001E-03    9.9999824E-25
  4.7900002E-03    9.9999963E-25
  4.8250002E-03    1.0000004E-24
  4.8600002E-03    9.9999913E-25
  4.8949998E-03    9.9999982E-25
  4.9299998E-03    1.0000019E-24
  4.9649999E-03    1.0000010E-24
  4.9999999E-03    9.9999903E-25
  5.0349999E-03    1.0000000E-24
  5.0700000E-03    1.0000012E-24
  5.1050000E-03    9.9999903E-25
  5.1400000E-03    9.9999815E-25
  5.1750001E-03    1.0000010E-24
  5.2100001E-03    1.0000011E-24
  5.2450001E-03    9.9999884E-25
  5.2800002E-03    1.0000018E-24
  5.3150002E-03    1.0000024E-24
  5.3500002E-03    9.9999657E-25
  5.3849998E-03    9.9999765E-25
  5.4199998E-03    1.0000037E-24
  5.4549999E-03    1.0000010E-24
  5.4899999E-03    9.9999765E-25
  5.5249999E-03    1.0000019E-24
  5.5600000E-03    1.0000022E-24
  5.5950000E-03    9.9999716E-25
  5.6300000E-03    9.9999864E-25
  5.6650001E-03    1.0000023E-24
  5.7000001E-03    1.0000008E-24
  5.7350001E-03    9.9999953E-25
  5.7700002E-03    1.0000010E-24
  5.8050002E-03    1.0000016E-24
  5.8400002E-03    9.9999953E-25
  5.8749998E-03    9.9999795E-25
  5.9099998E-03    9.9999982E-25
  5.9449999E-03    1.0000000E-24
  5.9799999E-03    9.9999765E-25
  6.0149999E-03    1.0000005E-24
  6.0500000E-03    1.0000036E-24
  6.0850000E-03    9.9999864E-25
  6.1200000E-03    9.9999795E-25
  6.1550001E-03    1.0000047E-24
  6.1900001E-03    1.0000010E-24
  6.2250001E-03    9.9999519E-25
  6.2600002E-03    1.0000017E-24
  6.2950002E-03    1.0000043E-24
  6.3299998E-03    9.9999696E-25
  6.3649998E-03    9.9999864E-25
  6.3999998E-03    1.0000040E-24
  6.4349999E-03    1.0000004E-24
  6.4699999E-03    9.9999815E-25
  6.5049999E-03    1.0000007E-24
  6.5400000E-03    9.9999963E-25
  6.5750000E-03    9.9999854E-25
  6.6100000E-03    1.0000005E-24
  6.6450001E-03    1.0000002E-24
  6.6800001E-03    9.9999913E-25
  6.7150001E-03    9.9999903E-25
  6.7500002E-03    1.0000001E-24
  6.7850002E-03    1.0000010E-24
  6.8199998E-03    1.0000000E-24
  6.8549998E-03    1.0000003E-24
  6.8899998E-03    1.0000027E-24
  6.9249999E-03    1.0000004E-24
  6.9599999E-03    9.9999667E-25
  6.9949999E-03    9.9999893E-25
  7.0300000E-03    1.0000005E-24
  7.0650000E-03    9.9999874E-25
  7.1000000E-03    1.0000002E-24
  7.1350001E-03    1.0000028E-24
  7.1700001E-03    1.0000008E-24
  7.2050001E-03    9.9999963E-25
  7.2400002E-03    9.9999992E-25
  7.2750002E-03    9.9999844E-25
  7.3099998E-03    9.9999953E-25
  7.3449998E-03    1.0000020E-24
  7.3799998E-03    9.9999953E-25
  7.4149999E-03    9.9999874E-25
  7.4499999E-03    1.0000024E-24
  7.4850000E-03    1.0000015E-24
  7.5200000E-03    9.9999874E-25
  7.5550000E-03    1.0000004E-24
  7.5900001E-03    1.0000009E-24
  7.6250001E-03    9.9999903E-25
  7.6600001E-03    1.0000001E-24
  7.6950002E-03    1.0000006E-24
  7.7300002E-03    9.9999893E-25
  7.7650002E-03    9.9999963E-25
  7.7999998E-03    9.9999953E-25
  7.8349998E-03    9.9999775E-25
  7.8699999E-03    1.0000007E-24
  7.9049999E-03    1.0000022E-24
  7.9399999E-03    9.9999923E-25
  7.9750000E-03    1.0000007E-24
  8.0100000E-03    1.0000017E-24
  8.0450000E-03    9.9999726E-25
  8.0800001E-03    9.9999834E-25
  8.1150001E-03    1.0000035E-24
  8.1500001E-03    1.0000009E-24
  8.1850002E-03    9.9999884E-25
  8.2200002E-03    1.0000015E-24
  8.2550002E-03    9.9999953E-25
  8.2900003E-03    9.9999746E-25
  8.3250003E-03    1.0000007E-24
  8.3600003E-03    1.0000009E-24
  8.3950004E-03    9.9999992E-25
  8.4300004E-03    1.0000016E-24
  8.4650004E-03    1.0000004E-24
  8.5000005E-03    9.9999844E-25
  8.5349996E-03    9.9999972E-25
  8.5699996E-03    9.9999923E-25
  8.6049996E-03    9.9999903E-25
  8.6399997E-03    1.0000012E-24
  8.6749997E-03    1.0000007E-24
  8.7099997E-03    1.0000001E-24
  8.7449998E-03    1.0000018E-24
  8.7799998E-03    9.9999933E-25
  8.8149998E-03    9.9999706E-25
  8.8499999E-03    1.0000011E-24
  8.8849999E-03    1.0000029E-24
  8.9199999E-03    9.9999992E-25
  8.9550000E-03    9.9999923E-25
  8.9900000E-03    9.9999913E-25
  9.0250000E-03    9.9999844E-25
  9.0600001E-03    1.0000003E-24
  9.0950001E-03    1.0000011E-24
  9.1300001E-03    9.9999963E-25
  9.1650002E-03    1.0000007E-24
  9.2000002E-03    1.0000010E-24
  9.2350002E-03    9.9999963E-25
  9.2700003E-03    9.9999992E-25
  9.3050003E-03    9.9999953E-25
  9.3400003E-03    9.9999844E-25
  9.3750004E-03    9.9999982E-25
  9.4100004E-03    1.0000010E-24
  9.4450004E-03    1.0000001E-24
  9.4799995E-03    1.0000001E-24
  9.5149996E-03    1.0000008E-24
  9.5499996E-03    1.0000006E-24
  9.5849996E-03    1.0000008E-24
  9.6199997E-03    1.0000004E-24
  9.6549997E-03    1.0000007E-24
  9.6899997E-03    1.0000009E-24
  9.7249998E-03    9.9999884E-25
  9.7599998E-03    9.9999864E-25
  9.7949998E-03    1.0000016E-24
  9.8299999E-03    1.0000002E-24
  9.8649999E-03    9.9999765E-25
  9.8999999E-03    1.0000016E-24
  9.9350000E-03    1.0000026E-24
  9.9700000E-03    9.9999844E-25
  1.0005000E-02    9.9999943E-25
  1.0040000E-02    1.0000019E-24
  1.0075000E-02    9.9999982E-25
  1.0110000E-02    9.9999943E-25
  1.0145000E-02    1.0000005E-24
  1.0180000E-02    9.9999884E-25
  1.0215000E-02    9.9999982E-25
  1.0250000E-02    1.0000015E-24
  1.0285000E-02    9.9999874E-25
  1.0320000E-02    9.9999775E-25
  1.0355000E-02    1.0000011E-24
  1.0390000E-02    1.0000007E-24
  1.0425000E-02    9.9999893E-25
  1.0460000E-02    9.9999992E-25
  1.0495000E-02    1.0000017E-24
  1.0530000E-02    1.0000018E-24
  1.0565000E-02    1.0000000E-24
  1.0600000E-02    9.9999864E-25
  1.0635000E-02    1.0000001E-24
  1.0670000E-02    1.0000010E-24
  1.0705000E-02    9.9999923E-25
  1.0740000E-02    1.0000003E-24
  1.0775000E-02    1.0000024E-24
  1.0810000E-02    9.9999854E-25
  1.0845000E-02    9.9999726E-25
  1.0880000E-02    1.0000023E-24
  1.0915000E-02    1.0000016E-24
  1.0950000E-02    9.9999824E-25
  1.0985000E-02    1.0000013E-24
  1.1020000E-02    1.0000011E-24
  1.1055000E-02    9.9999706E-25
  1.1090000E-02    1.0000012E-24
  1.1125000E-02    1.0000036E-24
  1.1160000E-02    9.9999736E-25
  1.1195000E-02    9.9999775E-25
  1.1230000E-02    1.0000037E-24
  1.1265000E-02    1.0000010E-24
  1.1300000E-02    9.9999716E-25
  1.1335000E-02    1.0000011E-24
  1.1370000E-02    1.0000024E-24
  1.1405000E-02    9.9999834E-25
  1.1440000E-02    9.9999824E-25
  1.1475000E-02    1.0000018E-24
  1.1510000E-02    1.0000016E-24
  1.1545000E-02    9.9999933E-25
  1.1580000E-02    9.9999982E-25
  1.1615000E-02    1.0000007E-24
  1.1650000E-02    9.9999844E-25
  1.1685000E-02    9.9999815E-25
  1.1720000E-02    1.0000010E-24
  1.1755000E-02    1.0000012E-24
  1.1790000E-02    9.9999992E-25
  1.1825000E-02    1.0000006E-24
  1.1860000E-02    9.9999992E-25
  1.1895000E-02    9.9999963E-25
  1.1930000E-02    1.0000002E-24
  1.1965000E-02    9.9999923E-25
  1.2000000E-02    9.9999824E-25
  1.2035000E-02    9.9999982E-25
  1.2070000E-02    1.0000008E-24
  1.2105000E-02    1.0000016E-24
  1.2140000E-02    1.0000017E-24
  1.2175000E-02    9.9999923E-25
  1.2210000E-02    9.9999953E-25
  1.2245000E-02    1.0000013E-24
  1.2280000E-02    9.9999933E-25
  1.2315000E-02    9.9999982E-25
  1.2350000E-02    1.0000028E-24
  1.2385000E-02    9.9999992E-25
  1.2420000E-02    9.9999677E-25
  1.2455000E-02    9.9999992E-25
  1.2490000E-02    1.0000021E-24
  1.2525000E-02    1.0000012E-24
  1.2560000E-02    9.9999854E-25
  1.2595000E-02    9.9999489E-25
  1.2630000E-02    9.9999953E-25
  1.2665000E-02    1.0000092E-24
  1.2700000E-02    1.0000036E-24
  1.2735000E-02    9.9999065E-25
  1.2770000E-02    9.9999538E-25
  1.2805000E-02    1.0000114E-24
  1.2840000E-02    1.0000113E-24
  1.2875000E-02    9.9999016E-25
  1.2910000E-02    9.9997695E-25
  1.2945000E-02    1.0000026E-24
  1.2980000E-02    1.0000368E-24
  1.3015000E-02    1.0000097E-24
  1.3050000E-02    9.9994884E-25
  1.3085000E-02    9.9997083E-25
  1.3120000E-02    1.0000669E-24
  1.3155000E-02    1.0000623E-24
  1.3190000E-02    9.9992429E-25
  1.3225000E-02    9.9988642E-25
  1.3260000E-02    1.0000662E-24
  1.3295000E-02    1.0001844E-24
  1.3330000E-02    9.9997754E-25
  1.3365000E-02    9.9972934E-25
  1.3400000E-02    9.9993129E-25
  1.3435000E-02    1.0003666E-24
  1.3470000E-02    1.0002352E-24
  1.3505000E-02    9.9955776E-25
  1.3540000E-02    9.9951201E-25
  1.3575000E-02    1.0004516E-24
  1.3610000E-02    1.0008499E-24
  1.3645000E-02    9.9966978E-25
  1.3680000E-02    9.9865166E-25
  1.3715000E-02    9.9994726E-25
  1.3750000E-02    1.0019011E-24
  1.3785000E-02    1.0007974E-24
  1.3820000E-02    9.9759468E-25
  1.3855000E-02    9.9795697E-25
  1.3890000E-02    1.0026702E-24
  1.3925000E-02    1.0038878E-24
  1.3960000E-02    9.9768057E-25
  1.3995000E-02    9.9359003E-25
  1.4030000E-02    1.0008935E-24
  1.4065000E-02    1.0094502E-24
  1.4100000E-02    1.0022229E-24
  1.4135000E-02    9.8737144E-25
  1.4170000E-02    9.9206092E-25
  1.4205000E-02    1.0148999E-24
  1.4240000E-02    1.0168119E-24
  1.4275000E-02    9.8511540E-25
  1.4310000E-02    9.7050658E-25
  1.4345000E-02    1.0097821E-24
  1.4380000E-02    1.0454911E-24
  1.4415000E-02    1.0030643E-24
  1.4450000E-02    9.3649021E-25
  1.4485000E-02    9.7180357E-25
  1.4520000E-02    1.0793762E-24
  1.4555000E-02    1.0693430E-24
  1.4590000E-02    9.1379182E-25
  1.4625000E-02    8.7062545E-25
  1.4660000E-02    1.0729609E-24
  1.4695000E-02    1.2091084E-24
  1.4730000E-02    9.7587103E-25
  1.4765000E-02    6.9639842E-25
  1.4800000E-02    9.2144436E-25
  1.4835000E-02    1.3990492E-24
  1.4870000E-02    1.2578183E-24
  1.4905000E-02    5.3486599E-25
  1.4940000E-02    4.6705718E-25
  1.4975000E-02    1.4536656E-24
  1.5010000E-02    1.9119931E-24
  1.5045000E-02    7.0200747E-25
  1.5080000E-02   -3.8248749E-25
  1.5115000E-02    9.0764531E-25
  1.5150000E-02    2.8921009E-24
  1.5185000E-02    1.8274480E-24
  1.5220000E-02   -1.3298701E-24
  1.5255000E-02   -1.0053909E-24
  1.5290000E-02    3.5037312E-24
  1.5325000E-02    4.7048710E-24
  1.5360000E-02   -1.1171869E-24
  1.5395000E-02   -4.8961603E-24
  1.5430000E-02    1.7790732E-24
  1.5465000E-02    9.4334156E-24
  1.5500000E-02    3.0122754E-24
  1.5535000E-02   -9.8863291E-24
  1.5570000E-02   -5.7417245E-24
  1.5605000E-02    1.3534662E-23
  1.5640000E-02    1.4847408E-23
  1.5675001E-02   -1.1163788E-23
  1.5710000E-02   -2.2410868E-23
  1.5745001E-02    9.1775675E-24
  1.5780000E-02    3.6026265E-23
  1.5814999E-02    2.5476289E-24
  1.5850000E-02   -4.6255929E-23
  1.5884999E-02   -1.8256392E-23
  1.5920000E-02    5.8347245E-23
  1.5954999E-02    4.8097657E-23
  1.5990000E-02   -5.9840167E-23
  1.6024999E-02   -8.5054749E-23
  1.6060000E-02    5.2253834E-23
  1.6094999E-02    1.3623074E-22
  1.6130000E-02   -1.9286160E-23
  1.6164999E-02   -1.8934662E-22
  1.6200000E-02   -4.0560445E-23
  1.6235000E-02    2.4283544E-22
  1.6270000E-02    1.4456077E-22
  1.6305000E-02   -2.7238100E-22
  1.6340001E-02   -2.9137417E-22
  1.6375000E-02    2.6165504E-22
  1.6410001E-02    4.8743289E-22
  1.6445000E-02   -1.7148226E-22
  1.6480001E-02   -7.1221947E-22
  1.6515000E-02   -2.7357826E-23
  1.6550001E-02    9.4340020E-22
  1.6585000E-02    3.8161238E-22
  1.6620001E-02   -1.1158370E-21
  1.6655000E-02   -9.1166835E-22
  1.6690001E-02    1.1533763E-21
  1.6725000E-02    1.6309406E-21
  1.6759999E-02   -9.3395426E-22
  1.6795000E-02   -2.4967938E-21
  1.6829999E-02    3.2969418E-22
  1.6865000E-02    3.4250169E-21
  1.6899999E-02    8.1726267E-22
  1.6935000E-02   -4.2145725E-21
  1.6969999E-02   -2.6039640E-21
  1.7005000E-02    4.5953752E-21
  1.7039999E-02    5.0950872E-21
  1.7075000E-02   -4.1704980E-21
  1.7109999E-02   -8.1970271E-21
  1.7145000E-02    2.4752326E-21
  1.7180000E-02    1.1631764E-20
  1.7215000E-02    1.0176608E-21
  1.7250000E-02   -1.4800513E-20
  1.7285001E-02   -6.7312703E-21
  1.7320000E-02    1.6804623E-20
  1.7355001E-02    1.4892230E-20
  1.7390000E-02   -1.6383643E-20
  1.7425001E-02   -2.5294148E-20
  1.7460000E-02    1.1984404E-20
  1.7495001E-02    3.7106886E-20
  1.7530000E-02   -1.9141842E-21
  1.7565001E-02   -4.8599414E-20
  1.7600000E-02   -1.5345003E-20
  1.7635001E-02    5.6980188E-20
  1.7670000E-02    4.0656997E-20
  1.7704999E-02   -5.8334102E-20
  1.7740000E-02   -7.3592863E-20
  1.7774999E-02    4.7751053E-20
  1.7810000E-02    1.1174183E-19
  1.7844999E-02   -2.0025934E-20
  1.7880000E-02   -1.5010268E-19
  1.7914999E-02   -2.9584897E-20
  1.7950000E-02    1.8053015E-19
  1.7984999E-02    1.0407994E-19
  1.8020000E-02   -1.9130596E-19
  1.8054999E-02   -2.0255182E-19
  1.8090000E-02    1.6809829E-19
  1.8124999E-02    3.1856646E-19
  1.8160000E-02   -9.5470194E-20
  1.8195000E-02   -4.3794871E-19
  1.8230001E-02   -4.1014326E-20
  1.8265000E-02    5.3744349E-19
  1.8300001E-02    2.5009671E-19
  1.8335000E-02   -5.8406370E-19
  1.8370001E-02   -5.2973448E-19
  1.8405000E-02    5.3793535E-19
  1.8440001E-02    8.6323943E-19
  1.8475000E-02   -3.5434189E-19
  1.8510001E-02   -1.2105520E-18
  1.8545000E-02   -4.9266930E-21
  1.8580001E-02    1.5098082E-18
  1.8615000E-02    5.6532775E-19
  1.8650001E-02   -1.6705920E-18
  1.8685000E-02   -1.3216187E-18
  1.8719999E-02    1.5856017E-18
  1.8755000E-02    2.2273554E-18
  1.8789999E-02   -1.1390196E-18
  1.8825000E-02   -3.1797882E-18
  1.8859999E-02    2.2808792E-19
  1.8895000E-02    4.0111270E-18
  1.8929999E-02    1.2076139E-18
  1.8965000E-02   -4.4938469E-18
  1.8999999E-02   -3.1584093E-18
  1.9035000E-02    4.3480459E-18
  1.9069999E-02    5.4952325E-18
  1.9105000E-02   -3.2862626E-18
  1.9140000E-02   -7.9548156E-18
  1.9175000E-02    1.0578316E-18
  1.9210000E-02    1.0113957E-17
  1.9245001E-02    2.4797051E-18
  1.9280000E-02   -1.1406912E-17
  1.9315001E-02   -7.2756681E-18
  1.9350000E-02    1.1155574E-17
  1.9385001E-02    1.2996244E-17
  1.9420000E-02   -8.6773190E-18
  1.9455001E-02   -1.8981888E-17
  1.9490000E-02    3.4068891E-18
  1.9525001E-02    2.4219018E-17
  1.9560000E-02    4.9542419E-18
  1.9595001E-02   -2.7353390E-17
  1.9630000E-02   -1.6210502E-17
  1.9664999E-02    2.6819354E-17
  1.9700000E-02    2.9514463E-17
  1.9734999E-02   -2.1112276E-17
  1.9770000E-02   -4.3280280E-17
  1.9804999E-02    9.0198901E-18
  1.9840000E-02    5.5109638E-17
  1.9874999E-02    9.9423214E-18
  1.9910000E-02   -6.1953849E-17
  1.9944999E-02   -3.5154640E-17
  1.9980000E-02    6.0451484E-17
  2.0014999E-02    6.4541714E-17
  2.0050000E-02   -4.7382272E-17
  2.0085000E-02   -9.4322611E-17
  2.0120000E-02    2.0507065E-17
  2.0155000E-02    1.1920540E-16
  2.0190001E-02    2.0789234E-17
  2.0225000E-02   -1.3262700E-16
  2.0260001E-02   -7.4585916E-17
  2.0295000E-02    1.2771212E-16
  2.0330001E-02    1.3594756E-16
  2.0365000E-02   -9.8201102E-17
  2.0400001E-02   -1.9643714E-16
  2.0435000E-02    4.0312693E-17
  2.0470001E-02    2.4476131E-16
  2.0505000E-02    4.5993284E-17
  2.0540001E-02   -2.6764269E-16
  2.0575000E-02   -1.5541263E-16
  2.0609999E-02    2.5176432E-16
  2.0645000E-02    2.7632571E-16
  2.0679999E-02   -1.8630240E-16
  2.0715000E-02   -3.9112487E-16
  2.0749999E-02    6.5637046E-17
  2.0785000E-02    4.7650214E-16
  2.0819999E-02    1.0670457E-16
  2.0855000E-02   -5.0759238E-16
  2.0889999E-02   -3.1776536E-16
  2.0925000E-02    4.6021751E-16
  2.0959999E-02    5.4190500E-16
  2.0995000E-02   -3.1769188E-16
  2.1029999E-02   -7.4272216E-16
  2.1065000E-02    7.5635417E-17
  2.1100000E-02    8.7709097E-16
  2.1135001E-02    2.5418636E-16
  2.1170000E-02   -8.9952019E-16
  2.1205001E-02   -6.3927482E-16
  2.1240000E-02    7.7152875E-16
  2.1275001E-02    1.0265687E-15
  2.1310000E-02   -4.7153509E-16
  2.1345001E-02   -1.3468431E-15
  2.1380000E-02    2.5329077E-18
  2.1415001E-02    1.5221358E-15
  2.1450000E-02    5.9934680E-16
  2.1485001E-02   -1.4782501E-15
  2.1520000E-02   -1.2621692E-15
  2.1555001E-02    1.1605936E-15
  2.1590000E-02    1.8823524E-15
  2.1624999E-02   -5.4910960E-16
  2.1660000E-02   -2.3325517E-15
  2.1694999E-02   -3.2453347E-16
  2.1730000E-02    2.4822779E-15
  2.1764999E-02    1.3712508E-15
  2.1800000E-02   -2.2213564E-15
  2.1834999E-02   -2.4421402E-15
  2.1870000E-02    1.4866349E-15
  2.1904999E-02    3.3456533E-15
  2.1940000E-02   -2.8172337E-16
  2.1974999E-02   -3.8605619E-15
  2.2010000E-02   -1.2886640E-15
  2.2045000E-02    3.7860480E-15
  2.2080000E-02    3.0269161E-15
  2.2115000E-02   -2.9738393E-15
  2.2150001E-02   -4.6458512E-15
  2.2185000E-02    1.3793503E-15
  2.2220001E-02    5.8036737E-15
  2.2255000E-02    9.0966828E-16
  2.2290001E-02   -6.1462481E-15
  2.2325000E-02   -3.6431586E-15
  2.2360001E-02    5.3793407E-15
  2.2395000E-02    6.4115418E-15
  2.2430001E-02   -3.3378411E-15
  2.2465000E-02   -8.6826747E-15
  2.2500001E-02    6.5686273E-17
  2.2535000E-02    9.8801743E-15
  2.2569999E-02    4.1555259E-15
  2.2605000E-02   -9.4632816E-15
  2.2639999E-02   -8.7787740E-15
  2.2675000E-02    7.0457501E-15
  2.2709999E-02    1.3022877E-14
  2.2745000E-02   -2.5138017E-15
  2.2779999E-02   -1.5961348E-14
  2.2815000E-02   -3.8780857E-15
  2.2849999E-02    1.6635436E-14
  2.2885000E-02    1.1433799E-14
  2.2919999E-02   -1.4277179E-14
  2.2955000E-02   -1.9079395E-14
  2.2990000E-02    8.4184309E-15
  2.3025000E-02    2.5371693E-14
  2.3060000E-02    8.4249804E-16
  2.3095001E-02   -2.8755932E-14
  2.3130000E-02   -1.2772168E-14
  2.3165001E-02    2.7750126E-14
  2.3200000E-02    2.5941905E-14
  2.3235001E-02   -2.1270641E-14
  2.3270000E-02   -3.8303514E-14
  2.3305001E-02    8.9155529E-15
  2.3340000E-02    4.7375278E-14
  2.3375001E-02    8.7339727E-15
  2.3410000E-02   -5.0617357E-14
  2.3445001E-02   -3.0032088E-14
  2.3480000E-02    4.5820796E-14
  2.3514999E-02    5.2235959E-14
  2.3550000E-02   -3.1619696E-14
  2.3584999E-02   -7.1705533E-14
  2.3620000E-02    7.9350394E-15
  2.3654999E-02    8.4346836E-14
  2.3690000E-02    2.3655796E-14
  2.3724999E-02   -8.6260324E-14
  2.3760000E-02   -5.9885934E-14
  2.3794999E-02    7.4332501E-14
  2.3830000E-02    9.5850729E-14
  2.3864999E-02   -4.7083316E-14
  2.3900000E-02   -1.2552502E-13
  2.3934999E-02    5.2418871E-15
  2.3970000E-02    1.4251743E-13
  2.4005000E-02    4.7809301E-14
  2.4040001E-02   -1.4115353E-13
  2.4075000E-02   -1.0612347E-13
  2.4110001E-02    1.1750683E-13
  2.4145000E-02    1.6164624E-13
  2.4180001E-02   -7.0434456E-14
  2.4215000E-02   -2.0508920E-13
  2.4250001E-02    2.3208519E-15
  2.4285000E-02    2.2723522E-13
  2.4320001E-02    8.0624723E-14
  2.4355000E-02   -2.2054858E-13
  2.4390001E-02   -1.6876394E-13
  2.4425000E-02    1.8058946E-13
  2.4460001E-02    2.4994465E-13
  2.4495000E-02   -1.0731734E-13
  2.4529999E-02   -3.1105497E-13
  2.4565000E-02    5.7185121E-15
  2.4599999E-02    3.4001532E-13
  2.4635000E-02    1.1427018E-13
  2.4669999E-02   -3.2772995E-13
  2.4705000E-02   -2.3861880E-13
  2.4739999E-02    2.6998160E-13
  2.4775000E-02    3.5090813E-13
  2.4809999E-02   -1.6851635E-13
  2.4845000E-02   -4.3457390E-13
  2.4879999E-02    3.1382652E-14
  2.4915000E-02    4.7533087E-13
  2.4950000E-02    1.2777365E-13
  2.4985000E-02   -4.6338492E-13
  2.5020000E-02   -2.9124145E-13
  2.5055001E-02    3.9519107E-13
  2.5090000E-02    4.3964065E-13
  2.5125001E-02   -2.7404394E-13
  2.5160000E-02   -5.5435534E-13
  2.5195001E-02    1.1002449E-13
  2.5230000E-02    6.2030958E-13
  2.5265001E-02    8.1693082E-14
  2.5300000E-02   -6.2745848E-13
  2.5335001E-02   -2.8251251E-13
  2.5370000E-02    5.7223388E-13
  2.5405001E-02    4.7312843E-13
  2.5440000E-02   -4.5721500E-13
  2.5474999E-02   -6.3547122E-13
  2.5510000E-02    2.9050455E-13
  2.5544999E-02    7.5464217E-13
  2.5580000E-02   -8.4039804E-14
  2.5614999E-02   -8.1964622E-13
  2.5650000E-02   -1.4809521E-13
  2.5684999E-02    8.2341599E-13
  2.5720000E-02    3.9098371E-13
  2.5754999E-02   -7.6231946E-13
  2.5790000E-02   -6.2974083E-13
  2.5824999E-02    6.3523248E-13
  2.5860000E-02    8.4945348E-13
  2.5895000E-02   -4.4293822E-13
  2.5930000E-02   -1.0345473E-12
  2.5965000E-02    1.8816410E-13
  2.6000001E-02    1.1680672E-12
  2.6035000E-02    1.2357289E-13
  2.6070001E-02   -1.2310248E-12
  2.6105000E-02   -4.8203618E-13
  2.6140001E-02    1.2029502E-12
  2.6175000E-02    8.7008525E-13
  2.6210001E-02   -1.0634016E-12
  2.6245000E-02   -1.2611225E-12
  2.6280001E-02    7.9578813E-13
  2.6315000E-02    1.6184279E-12
  2.6350001E-02   -3.9176618E-13
  2.6385000E-02   -1.8957275E-12
  2.6419999E-02   -1.4329531E-13
  2.6455000E-02    2.0404730E-12
  2.6489999E-02    7.8511541E-13
  2.6525000E-02   -1.9999130E-12
  2.6559999E-02   -1.4869741E-12
  2.6595000E-02    1.7297593E-12
  2.6629999E-02    2.1794515E-12
  2.6665000E-02   -1.2042351E-12
  2.6699999E-02   -2.7742676E-12
  2.6735000E-02    4.2583843E-13
  2.6769999E-02    3.1721620E-12
  2.6805000E-02    5.6610380E-13
  2.6839999E-02   -3.2759969E-12
  2.6875000E-02   -1.6916341E-12
  2.6910000E-02    3.0067869E-12
  2.6945001E-02    2.8323036E-12
  2.6980000E-02   -2.3205864E-12