 -4.8000002E-03    1.0000000E-24
 -4.7650002E-03    1.0000002E-24
 -4.7300002E-03    1.0000002E-24
 -4.6950001E-03    1.0000001E-24
 -4.6600001E-03    1.0000000E-24
 -4.6250001E-03    1.0000003E-24
 -4.5900000E-03    1.0000002E-24
 -4.5550000E-03    9.9999992E-25
 -4.5200000E-03    1.0000004E-24
 -4.4849999E-03    1.0000002E-24
 -4.4499999E-03    9.9999992E-25
 -4.4149999E-03    1.0000001E-24
 -4.3799998E-03    9.9999992E-25
 -4.3449998E-03    1.0000002E-24
 -4.3100002E-03    1.0000011E-24
 -4.2750002E-03    1.0000004E-24
 -4.2400002E-03    9.9999923E-25
 -4.2050001E-03    1.0000002E-24
 -4.1700001E-03    1.0000005E-24
 -4.1350001E-03    9.9999963E-25
 -4.1000000E-03    1.0000001E-24
 -4.0650000E-03    1.0000002E-24
 -4.0300000E-03    9.9999953E-25
 -3.9949999E-03    1.0000004E-24
 -3.9599999E-03    1.0000003E-24
 -3.9249999E-03    9.9999913E-25
 -3.8900001E-03    1.0000002E-24
 -3.8550000E-03    1.0000008E-24
 -3.8200000E-03    9.9999992E-25
 -3.7849999E-03    1.0000005E-24
 -3.7499999E-03    1.0000013E-24
 -3.7150001E-03    9.9999943E-25
 -3.6800001E-03    9.9999923E-25
 -3.6450000E-03    1.0000012E-24
 -3.6100000E-03    1.0000004E-24
 -3.5750000E-03    9.9999933E-25
 -3.5399999E-03    1.0000008E-24
 -3.5049999E-03    1.0000002E-24
 -3.4700001E-03    9.9999874E-25
 -3.4350001E-03    1.0000007E-24
 -3.4000000E-03    1.0000008E-24
 -3.3650000E-03    9.9999903E-25
 -3.3300000E-03    1.0000003E-24
 -3.2949999E-03    1.0000010E-24
 -3.2599999E-03    9.9999923E-25
 -3.2250001E-03    9.9999963E-25
 -3.1900001E-03    1.0000011E-24
 -3.1550000E-03    1.0000000E-24
 -3.1200000E-03    9.9999953E-25
 -3.0850000E-03    1.0000014E-24
 -3.0499999E-03    1.0000013E-24
 -3.0149999E-03    9.9999943E-25
 -2.9800001E-03    9.9999933E-25
 -2.9450001E-03    1.0000003E-24
 -2.9100000E-03    1.0000000E-24
 -2.8750000E-03    9.9999933E-25
 -2.8400000E-03    1.0000000E-24
 -2.8049999E-03    1.0000015E-24
 -2.7699999E-03    1.0000008E-24
 -2.7350001E-03    9.9999903E-25
 -2.7000001E-03    1.0000000E-24
 -2.6650000E-03    1.0000012E-24
 -2.6300000E-03    9.9999992E-25
 -2.5950000E-03    9.9999903E-25
 -2.5599999E-03    1.0000008E-24
 -2.5249999E-03    1.0000005E-24
 -2.4900001E-03    9.9999933E-25
 -2.4550001E-03    1.0000004E-24
 -2.4200000E-03    1.0000007E-24
 -2.3850000E-03    9.9999953E-25
 -2.3500000E-03    1.0000001E-24
 -2.3149999E-03    1.0000003E-24
 -2.2799999E-03    9.9999913E-25
 -2.2450001E-03    1.0000001E-24
 -2.2100001E-03    1.0000012E-24
 -2.1750000E-03    1.0000000E-24
 -2.1400000E-03    9.9999963E-25
 -2.1050000E-03    1.0000006E-24
 -2.0699999E-03    1.0000002E-24
 -2.0349999E-03    9.9999972E-25
 -2.0000001E-03    1.0000002E-24
 -1.9650001E-03    1.0000009E-24
 -1.9300000E-03    1.0000005E-24
 -1.8950000E-03    9.9999963E-25
 -1.8600000E-03    9.9999972E-25
 -1.8250000E-03    1.0000008E-24
 -1.7900000E-03    1.0000005E-24
 -1.7550000E-03    9.9999923E-25
 -1.7199999E-03    9.9999972E-25
 -1.6850000E-03    1.0000005E-24
 -1.6500000E-03    9.9999913E-25
 -1.6150000E-03    9.9999953E-25
 -1.5800000E-03    1.0000012E-24
 -1.5450000E-03    1.0000009E-24
 -1.5100000E-03    9.9999972E-25
 -1.4750001E-03    1.0000004E-24
 -1.4400000E-03    9.9999972E-25
 -1.4050000E-03    9.9999884E-25
 -1.3700000E-03    1.0000012E-24
 -1.3350000E-03    1.0000015E-24
 -1.3000000E-03    9.9999913E-25
 -1.2650000E-03    9.9999923E-25
 -1.2300001E-03    1.0000005E-24
 -1.1950000E-03    1.0000001E-24
 -1.1600000E-03    9.9999933E-25
 -1.1250000E-03    1.0000003E-24
 -1.0900000E-03    1.0000018E-24
 -1.0550000E-03    1.0000006E-24
 -1.0200000E-03    9.9999824E-25
 -9.8500005E-04    1.0000000E-24
 -9.5000002E-04    1.0000008E-24
 -9.1499998E-04    9.9999815E-25
 -8.8000001E-04    9.9999972E-25
 -8.4499997E-04    1.0000023E-24
 -8.1000000E-04    9.9999943E-25
 -7.7500002E-04    9.9999992E-25
 -7.3999999E-04    1.0000024E-24
 -7.0500001E-04    9.9999884E-25
 -6.6999998E-04    9.9999815E-25
 -6.3500000E-04    1.0000022E-24
 -6.0000003E-04    1.0000005E-24
 -5.6499999E-04    9.9999775E-25
 -5.3000002E-04    1.0000006E-24
 -4.9499999E-04    1.0000014E-24
 -4.6000001E-04    9.9999972E-25
 -4.2500001E-04    1.0000008E-24
 -3.9000000E-04    1.0000013E-24
 -3.5500000E-04    1.0000002E-24
 -3.1999999E-04    9.9999913E-25
 -2.8499999E-04    9.9999815E-25
 -2.5000001E-04    9.9999992E-25
 -2.1499999E-04    1.0000024E-24
 -1.8000000E-04    9.9999953E-25
 -1.4500000E-04    9.9999864E-25
 -1.1000000E-04    1.0000021E-24
 -7.5000004E-05    1.0000001E-24
 -3.9999999E-05    9.9999726E-25
 -4.9999999E-06    1.0000015E-24
  2.9999999E-05    1.0000024E-24
  6.5000000E-05    9.9999805E-25
  9.9999997E-05    1.0000002E-24
  1.3499999E-04    1.0000029E-24
  1.7000000E-04    9.9999824E-25
  2.0500000E-04    9.9999884E-25
  2.3999999E-04    1.0000025E-24
  2.7500000E-04    9.9999755E-25
  3.1000000E-04    9.9999677E-25
  3.4500001E-04    1.0000036E-24
  3.8000001E-04    1.0000017E-24
  4.1499999E-04    9.9999815E-25
  4.4999999E-04    1.0000023E-24
  4.8500000E-04    1.0000022E-24
  5.2000000E-04    9.9999706E-25
  5.5499998E-04    9.9999805E-25
  5.9000001E-04    1.0000005E-24
  6.2499999E-04    1.0000006E-24
  6.6000002E-04    1.0000014E-24
  6.9500000E-04    1.0000016E-24
  7.3000003E-04    1.0000011E-24
  7.6500000E-04    1.0000003E-24
  7.9999998E-04    9.9999834E-25
  8.3500001E-04    9.9999844E-25
  8.6999999E-04    1.0000016E-24
  9.0500002E-04    1.0000007E-24
  9.4000000E-04    9.9999874E-25
  9.7499997E-04    1.0000010E-24
  1.0100000E-03    1.0000012E-24
  1.0450000E-03    9.9999913E-25
  1.0800000E-03    1.0000002E-24
  1.1150000E-03    9.9999982E-25
  1.1500000E-03    9.9999992E-25
  1.1849999E-03    1.0000019E-24
  1.2200000E-03    1.0000005E-24
  1.2550000E-03    9.9999834E-25
  1.2900000E-03    1.0000010E-24
  1.3250000E-03    1.0000009E-24
  1.3600000E-03    9.9999834E-25
  1.3950000E-03    9.9999982E-25
  1.4299999E-03    1.0000009E-24
  1.4650000E-03    9.9999972E-25
  1.5000000E-03    1.0000006E-24
  1.5350000E-03    1.0000008E-24
  1.5700000E-03    9.9999913E-25
  1.6050000E-03    1.0000015E-24
  1.6400000E-03    1.0000020E-24
  1.6749999E-03    9.9999815E-25
  1.7100000E-03    9.9999854E-25
  1.7450000E-03    1.0000011E-24
  1.7800000E-03    9.9999854E-25
  1.8150000E-03    9.9999893E-25
  1.8500000E-03    1.0000031E-24
  1.8850000E-03    1.0000017E-24
  1.9200000E-03    9.9999884E-25
  1.9550000E-03    9.9999953E-25
  1.9900000E-03    9.9999992E-25
  2.0250001E-03    1.0000002E-24
  2.0600001E-03    1.0000005E-24
  2.0949999E-03    9.9999963E-25
  2.1299999E-03    1.0000007E-24
  2.1650000E-03    1.0000015E-24
  2.2000000E-03    9.9999884E-25
  2.2350000E-03    9.9999923E-25
  2.2700001E-03    1.0000017E-24
  2.3050001E-03    9.9999884E-25
  2.3399999E-03    9.9999795E-25
  2.3749999E-03    1.0000024E-24
  2.4100000E-03    1.0000018E-24
  2.4450000E-03    9.9999893E-25
  2.4800000E-03    1.0000005E-24
  2.5150001E-03    1.0000005E-24
  2.5500001E-03    9.9999864E-25
  2.5849999E-03    1.0000009E-24
  2.6199999E-03    1.0000014E-24
  2.6550000E-03    9.9999805E-25
  2.6900000E-03    9.9999953E-25
  2.7250000E-03    1.0000015E-24
  2.7600001E-03    9.9999884E-25
  2.7950001E-03    1.0000002E-24
  2.8299999E-03    1.0000041E-24
  2.8649999E-03    1.0000006E-24
  2.9000000E-03    9.9999617E-25
  2.9350000E-03    9.9999913E-25
  2.9700000E-03    1.0000019E-24
  3.0050001E-03    1.0000000E-24
  3.0400001E-03    1.0000006E-24
  3.0749999E-03    1.0000024E-24
  3.1099999E-03    9.9999953E-25
  3.1450000E-03    9.9999657E-25
  3.1800000E-03    1.0000001E-24
  3.2150000E-03    1.0000035E-24
  3.2500001E-03    1.0000005E-24
  3.2850001E-03    9.9999824E-25
  3.3199999E-03    9.9999982E-25
  3.3549999E-03    9.9999992E-25
  3.3900000E-03    9.9999933E-25
  3.4250000E-03    1.0000011E-24
  3.4600000E-03    1.0000011E-24
  3.4950001E-03    9.9999834E-25
  3.5300001E-03    1.0000009E-24
  3.5649999E-03    1.0000041E-24
  3.5999999E-03    9.9999864E-25
  3.6350000E-03    9.9999588E-25
  3.6700000E-03    1.0000014E-24
  3.7050000E-03    1.0000002E-24
  3.7400001E-03    9.9999598E-25
  3.7750001E-03    1.0000029E-24
  3.8099999E-03    1.0000067E-24
  3.8449999E-03    9.9999844E-25
  3.8800000E-03    9.9999755E-25
  3.9149998E-03    1.0000018E-24
  3.9499998E-03    9.9999874E-25
  3.9849998E-03    9.9999775E-25
  4.0199999E-03    1.0000031E-24
  4.0549999E-03    1.0000026E-24
  4.0899999E-03    9.9999834E-25
  4.1250000E-03    9.9999933E-25
  4.1600000E-03    1.0000004E-24
  4.1950000E-03    1.0000001E-24
  4.2300001E-03    9.9999963E-25
  4.2650001E-03    9.9999972E-25
  4.3000001E-03    1.0000012E-24
  4.3350002E-03    1.0000009E-24
  4.3700002E-03    9.9999834E-25
  4.4049998E-03    1.0000013E-24
  4.4399998E-03    1.0000028E-24
  4.4749998E-03    9.9999805E-25
  4.5099999E-03    9.9999824E-25
  4.5449999E-03    1.0000021E-24
  4.5799999E-03    9.9999943E-25
  4.6150000E-03    9.9999943E-25
  4.6500000E-03    1.0000019E-24
  4.6850001E-03    9.9999775E-25
  4.7200001E-03    9.9999884E-25
  4.7550001E-03    1.0000049E-24
  4.7900002E-03    9.9999972E-25
  4.8250002E-03    9.9999637E-25
  4.8600002E-03    1.0000031E-24
  4.8949998E-03    1.0000009E-24
  4.9299998E-03    9.9999667E-25
  4.9649999E-03    1.0000029E-24
  4.9999999E-03    1.0000026E-24
  5.0349999E-03    9.9999548E-25
  5.0700000E-03    9.9999992E-25
  5.1050000E-03    1.0000019E-24
  5.1400000E-03    9.9999637E-25
  5.1750001E-03    1.0000009E-24
  5.2100001E-03    1.0000051E-24
  5.2450001E-03    9.9999785E-25
  5.2800002E-03    9.9999696E-25
  5.3150002E-03    1.0000035E-24
  5.3500002E-03    1.0000000E-24
  5.3849998E-03    9.9999509E-25
  5.4199998E-03    1.0000010E-24
  5.4549999E-03    1.0000045E-24
  5.4899999E-03    1.0000002E-24
  5.5249999E-03    9.9999795E-25
  5.5600000E-03    9.9999943E-25
  5.5950000E-03    1.0000011E-24
  5.6300000E-03    1.0000015E-24
  5.6650001E-03    1.0000005E-24
  5.7000001E-03    9.9999963E-25
  5.7350001E-03    1.0000002E-24
  5.7700002E-03    1.0000001E-24
  5.8050002E-03    1.0000009E-24
  5.8400002E-03    1.0000026E-24
  5.8749998E-03    9.9999844E-25
  5.9099998E-03    9.9999558E-25
  5.9449999E-03    1.0000009E-24
  5.9799999E-03    1.0000017E-24
  6.0149999E-03    9.9999696E-25
  6.0500000E-03    1.0000014E-24
  6.0850000E-03    1.0000049E-24
  6.1200000E-03    9.9999775E-25
  6.1550001E-03    9.9999815E-25
  6.1900001E-03    1.0000049E-24
  6.2250001E-03    1.0000000E-24
  6.2600002E-03    9.9999598E-25
  6.2950002E-03    1.0000026E-24
  6.3299998E-03    1.0000031E-24
  6.3649998E-03    9.9999815E-25
  6.3999998E-03    9.9999953E-25
  6.4349999E-03    1.0000006E-24
  6.4699999E-03    9.9999913E-25
  6.5049999E-03    1.0000013E-24
  6.5400000E-03    1.0000024E-24
  6.5750000E-03    1.0000004E-24
  6.6100000E-03    9.9999943E-25
  6.6450001E-03    9.9999834E-25
  6.6800001E-03    9.9999854E-25
  6.7150001E-03    1.0000001E-24
  6.7500002E-03    9.9999884E-25
  6.7850002E-03    1.0000000E-24
  6.8199998E-03    1.0000029E-24
  6.8549998E-03    1.0000010E-24
  6.8899998E-03    9.9999913E-25
  6.9249999E-03    9.9999933E-25
  6.9599999E-03    9.9999805E-25
  6.9949999E-03    9.9999893E-25
  7.0300000E-03    1.0000021E-24
  7.0650000E-03    1.0000022E-24
  7.1000000E-03    1.0000020E-24
  7.1350001E-03    1.0000002E-24
  7.1700001E-03    9.9999608E-25
  7.2050001E-03    9.9999923E-25
  7.2400002E-03    1.0000036E-24
  7.2750002E-03    9.9999884E-25
  7.3099998E-03    9.9999864E-25
  7.3449998E-03    1.0000039E-24
  7.3799998E-03    1.0000003E-24
  7.4149999E-03    9.9999785E-25
  7.4499999E-03    1.0000013E-24
  7.4850000E-03    9.9999775E-25
  7.5200000E-03    9.9999726E-25
  7.5550000E-03    1.0000050E-24
  7.5900001E-03    1.0000017E-24
  7.6250001E-03    9.9999667E-25
  7.6600001E-03    1.0000024E-24
  7.6950002E-03    1.0000007E-24
  7.7300002E-03    9.9999430E-25
  7.7650002E-03    9.9999992E-25
  7.7999998E-03    1.0000038E-24
  7.8349998E-03    9.9999923E-25
  7.8699999E-03    1.0000004E-24
  7.9049999E-03    1.0000026E-24
  7.9399999E-03    9.9999903E-25
  7.9750000E-03    9.9999963E-25
  8.0100000E-03    1.0000012E-24
  8.0450000E-03    9.9999933E-25
  8.0800001E-03    1.0000008E-24
  8.1150001E-03    1.0000010E-24
  8.1500001E-03    9.9999775E-25
  8.1850002E-03    9.9999923E-25
  8.2200002E-03    1.0000020E-24
  8.2550002E-03    9.9999913E-25
  8.2900003E-03    9.9999854E-25
  8.3250003E-03    1.0000008E-24
  8.3600003E-03    9.9999982E-25
  8.3950004E-03    9.9999943E-25
  8.4300004E-03    1.0000023E-24
  8.4650004E-03    1.0000026E-24
  8.5000005E-03    9.9999953E-25
  8.5349996E-03    9.9999755E-25
  8.5699996E-03    9.9999755E-25
  8.6049996E-03    9.9999913E-25
  8.6399997E-03    1.0000015E-24
  8.6749997E-03    1.0000027E-24
  8.7099997E-03    1.0000015E-24
  8.7449998E-03    9.9999992E-25
  8.7799998E-03    1.0000002E-24
  8.8149998E-03    9.9999893E-25
  8.8499999E-03    9.9999765E-25
  8.8849999E-03    1.0000008E-24
  8.9199999E-03    1.0000038E-24
  8.9550000E-03    1.0000012E-24
  8.9900000E-03    9.9999884E-25
  9.0250000E-03    1.0000004E-24
  9.0600001E-03    9.9999953E-25
  9.0950001E-03    9.9999667E-25
  9.1300001E-03    9.9999903E-25
  9.1650002E-03    1.0000022E-24
  9.2000002E-03    1.0000006E-24
  9.2350002E-03    1.0000002E-24
  9.2700003E-03    1.0000024E-24
  9.3050003E-03    1.0000002E-24
  9.3400003E-03    9.9999736E-25
  9.3750004E-03    1.0000000E-24
  9.4100004E-03    1.0000022E-24
  9.4450004E-03    9.9999992E-25
  9.4799995E-03    9.9999943E-25
  9.5149996E-03    1.0000008E-24
  9.5499996E-03    1.0000003E-24
  9.5849996E-03    9.9999884E-25
  9.6199997E-03    9.9999972E-25
  9.6549997E-03    1.0000010E-24
  9.6899997E-03    9.9999992E-25
  9.7249998E-03    9.9999923E-25
  9.7599998E-03    1.0000005E-24
  9.7949998E-03    1.0000016E-24
  9.8299999E-03    1.0000005E-24
  9.8649999E-03    9.9999913E-25
  9.8999999E-03    1.0000005E-24
  9.9350000E-03    1.0000009E-24
  9.9700000E-03    9.9999903E-25
  1.0005000E-02    1.0000005E-24
  1.0040000E-02    1.0000028E-24
  1.0075000E-02    9.9999953E-25
  1.0110000E-02    9.9999677E-25
  1.0145000E-02    9.9999913E-25
  1.0180000E-02    1.0000015E-24
  1.0215000E-02    1.0000018E-24
  1.0250000E-02    9.9999933E-25
  1.0285000E-02    9.9999765E-25
  1.0320000E-02    1.0000002E-24
  1.0355000E-02    1.0000013E-24
  1.0390000E-02    9.9999943E-25
  1.0425000E-02    1.0000002E-24
  1.0460000E-02    1.0000023E-24
  1.0495000E-02    1.0000005E-24
  1.0530000E-02    9.9999943E-25
  1.0565000E-02    1.0000011E-24
  1.0600000E-02    9.9999982E-25
  1.0635000E-02    9.9999844E-25
  1.0670000E-02    9.9999953E-25
  1.0705000E-02    1.0000010E-24
  1.0740000E-02    1.0000029E-24
  1.0775000E-02    1.0000023E-24
  1.0810000E-02    9.9999755E-25
  1.0845000E-02    9.9999805E-25
  1.0880000E-02    1.0000032E-24
  1.0915000E-02    1.0000018E-24
  1.0950000E-02    9.9999834E-25
  1.0985000E-02    1.0000005E-24
  1.1020000E-02    1.0000001E-24
  1.1055000E-02    9.9999677E-25
  1.1090000E-02    9.9999844E-25
  1.1125000E-02    1.0000026E-24
  1.1160000E-02    1.0000036E-24
  1.1195000E-02    1.0000006E-24
  1.1230000E-02    9.9999509E-25
  1.1265000E-02    9.9999637E-25
  1.1300000E-02    1.0000062E-24
  1.1335000E-02    1.0000078E-24
  1.1370000E-02    9.9999657E-25
  1.1405000E-02    9.9999075E-25
  1.1440000E-02    1.0000020E-24
  1.1475000E-02    1.0000147E-24
  1.1510000E-02    1.0000025E-24
  1.1545000E-02    9.9997626E-25
  1.1580000E-02    9.9998779E-25
  1.1615000E-02    1.0000330E-24
  1.1650000E-02    1.0000306E-24
  1.1685000E-02    9.9996176E-25
  1.1720000E-02    9.9994145E-25
  1.1755000E-02    1.0000355E-24
  1.1790000E-02    1.0000990E-24
  1.1825000E-02    9.9998819E-25
  1.1860000E-02    9.9985260E-25
  1.1895000E-02    9.9996827E-25
  1.1930000E-02    1.0002036E-24
  1.1965000E-02    1.0001173E-24
  1.2000000E-02    9.9974571E-25
  1.2035000E-02    9.9973772E-25
  1.2070000E-02    1.0002798E-24
  1.2105000E-02    1.0004828E-24
  1.2140000E-02    9.9976395E-25
  1.2175000E-02    9.9921993E-25
  1.2210000E-02    1.0000687E-24
  1.2245000E-02    1.0011401E-24
  1.2280000E-02    1.0003082E-24
  1.2315000E-02    9.9846894E-25
  1.2350000E-02    9.9899274E-25
  1.2385000E-02    1.0018538E-24
  1.2420000E-02    1.0021367E-24
  1.2455000E-02    9.9808891E-25
  1.2490000E-02    9.9626624E-25
  1.2525000E-02    1.0013687E-24
  1.2560000E-02    1.0057997E-24
  1.2595000E-02    1.0001970E-24
  1.2630000E-02    9.9181026E-25
  1.2665000E-02    9.9668158E-25
  1.2700000E-02    1.0105289E-24
  1.2735000E-02    1.0085552E-24
  1.2770000E-02    9.8807678E-25
  1.2805000E-02    9.8347072E-25
  1.2840000E-02    1.0109013E-24
  1.2875000E-02    1.0275123E-24
  1.2910000E-02    9.9457985E-25
  1.2945000E-02    9.5895056E-25
  1.2980000E-02    9.9260958E-25
  1.3015000E-02    1.0555498E-24
  1.3050000E-02    1.0307645E-24
  1.3085000E-02    9.3208886E-25
  1.3120000E-02    9.3206421E-25
  1.3155000E-02    1.0711721E-24
  1.3190000E-02    1.1210369E-24
  1.3225000E-02    9.4434805E-25
  1.3260000E-02    8.0949647E-25
  1.3295000E-02    1.0070902E-24
  1.3330000E-02    1.2708949E-24
  1.3365000E-02    1.0904823E-24
  1.3400000E-02    6.5056821E-25
  1.3435000E-02    7.4377302E-25
  1.3470000E-02    1.3990363E-24
  1.3505000E-02    1.5028025E-24
  1.3540000E-02    6.2268484E-25
  1.3575000E-02    1.6208639E-25
  1.3610000E-02    1.2187385E-24
  1.3645000E-02    2.2449646E-24
  1.3680000E-02    1.1539698E-24
  1.3715000E-02   -6.8137348E-25
  1.3750000E-02    1.6501002E-25
  1.3785000E-02    3.0489504E-24
  1.3820000E-02    2.9114588E-24
  1.3855000E-02   -1.1679531E-24
  1.3890000E-02   -2.4288968E-24
  1.3925000E-02    2.7725142E-24
  1.3960000E-02    6.3836384E-24
  1.3995000E-02    5.1462362E-25
  1.4030000E-02   -6.6037215E-24
  1.4065000E-02   -1.1029719E-24
  1.4100000E-02    1.0737030E-23
  1.4135000E-02    7.4391429E-24
  1.4170000E-02   -1.0139219E-23
  1.4205000E-02   -1.1882582E-23
  1.4240000E-02    1.1719826E-23
  1.4275000E-02    2.2544474E-23
  1.4310000E-02   -5.9697933E-24
  1.4345000E-02   -3.0987024E-23
  1.4380000E-02   -9.7890026E-25
  1.4415000E-02    4.4001071E-23
  1.4450000E-02    1.9268229E-23
  1.4485000E-02   -5.1202516E-23
  1.4520000E-02   -4.2796979E-23
  1.4555000E-02    5.6530820E-23
  1.4590000E-02    8.0462190E-23
  1.4625000E-02   -4.6188330E-23
  1.4660000E-02   -1.2370801E-22
  1.4695000E-02    2.0361292E-23
  1.4730000E-02    1.7671633E-22
  1.4765000E-02    3.7738875E-23
  1.4800000E-02   -2.2341679E-22
  1.4835000E-02   -1.2901494E-22
  1.4870000E-02    2.5756304E-22
  1.4905000E-02    2.6802315E-22
  1.4940000E-02   -2.4923140E-22
  1.4975000E-02   -4.4704689E-22
  1.5010000E-02    1.7731161E-22
  1.5045000E-02    6.6521664E-22
  1.5080000E-02    2.3798226E-24
  1.5115000E-02   -8.8761539E-22
  1.5150000E-02   -3.1841627E-22
  1.5185000E-02    1.0736309E-21
  1.5220000E-02    8.1054219E-22
  1.5255000E-02   -1.1391081E-21
  1.5290000E-02   -1.4839681E-21
  1.5325000E-02    9.8690109E-22
  1.5360000E-02    2.3261646E-21
  1.5395000E-02   -4.7683292E-22
  1.5430000E-02   -3.2498440E-21
  1.5465000E-02   -5.2476502E-22
  1.5500000E-02    4.1124787E-21
  1.5535000E-02    2.1662578E-21
  1.5570000E-02   -4.6462493E-21
  1.5605000E-02   -4.5147170E-21
  1.5640000E-02    4.4973143E-21
  1.5675001E-02    7.5492550E-21
  1.5710000E-02   -3.2014578E-21
  1.5745001E-02   -1.1043417E-20
  1.5780000E-02    2.4197027E-22
  1.5814999E-02    1.4545593E-20
  1.5850000E-02    4.8935096E-21
  1.5884999E-02   -1.7235494E-20
  1.5920000E-02   -1.2559683E-20
  1.5954999E-02    1.7962020E-20
  1.5990000E-02    2.2779771E-20
  1.6024999E-02   -1.5183128E-20
  1.6060000E-02   -3.5005922E-20
  1.6094999E-02    7.1184643E-21
  1.6130000E-02    4.7870325E-20
  1.6164999E-02    8.0018649E-21
  1.6200000E-02   -5.8924553E-20
  1.6235000E-02   -3.1474371E-20
  1.6270000E-02    6.4628022E-20
  1.6305000E-02    6.3819408E-20
  1.6340001E-02   -6.0150442E-20
  1.6375000E-02   -1.0360977E-19
  1.6410001E-02    3.9838821E-20
  1.6445000E-02    1.4704800E-19
  1.6480001E-02    2.0061921E-21
  1.6515000E-02   -1.8715277E-19
  1.6550001E-02   -7.0138040E-20
  1.6585000E-02    2.1347122E-19
  1.6620001E-02    1.6653483E-19
  1.6655000E-02   -2.1154210E-19
  1.6690001E-02   -2.8802889E-19
  1.6725000E-02    1.6433781E-19
  1.6759999E-02    4.2446155E-19
  1.6795000E-02   -5.4613127E-20
  1.6829999E-02   -5.5667958E-19
  1.6865000E-02   -1.3264010E-19
  1.6899999E-02    6.5450330E-19
  1.6935000E-02    4.0422437E-19
  1.6969999E-02   -6.7724105E-19
  1.7005000E-02   -7.5336534E-19
  1.7039999E-02    5.7648063E-19
  1.7075000E-02    1.1539471E-18
  1.7109999E-02   -3.0273872E-19
  1.7145000E-02   -1.5537657E-18
  1.7180000E-02   -1.8697879E-19
  1.7215000E-02    1.8720774E-18
  1.7250000E-02    9.1433577E-19
  1.7285001E-02   -1.9994271E-18
  1.7320000E-02   -1.8646847E-18
  1.7355001E-02    1.8042952E-18
  1.7390000E-02    2.9697014E-18
  1.7425001E-02   -1.1521309E-18
  1.7460000E-02   -4.0940767E-18
  1.7495001E-02   -7.0169654E-20
  1.7530000E-02    5.0293086E-18
  1.7565001E-02    1.9252039E-18
  1.7600000E-02   -5.4914184E-18
  1.7635001E-02   -4.3754178E-18
  1.7670000E-02    5.1486108E-18
  1.7704999E-02    7.2502852E-18
  1.7740000E-02   -3.6544198E-18
  1.7774999E-02   -1.0213368E-17
  1.7810000E-02    7.2152194E-19
  1.7844999E-02    1.2740247E-17
  1.7880000E-02    3.7951704E-18
  1.7914999E-02   -1.4129937E-17
  1.7950000E-02   -9.8023401E-18
  1.7984999E-02    1.3570202E-17
  1.8020000E-02    1.6884700E-17
  1.8054999E-02   -1.0231663E-17
  1.8090000E-02   -2.4197169E-17
  1.8124999E-02    3.4580195E-18
  1.8160000E-02    3.0492468E-17
  1.8195000E-02    7.0862752E-18
  1.8230001E-02   -3.4111251E-17
  1.8265000E-02   -2.1136720E-17
  1.8300001E-02    3.3185699E-17
  1.8335000E-02    3.7635093E-17
  1.8370001E-02   -2.5860779E-17
  1.8405000E-02   -5.4611235E-17
  1.8440001E-02    1.0704481E-17
  1.8475000E-02    6.9159181E-17
  1.8510001E-02    1.2896136E-17
  1.8545000E-02   -7.7549129E-17
  1.8580001E-02   -4.4157565E-17
  1.8615000E-02    7.5665592E-17
  1.8650001E-02    8.0483721E-17
  1.8685000E-02   -5.9674358E-17
  1.8719999E-02   -1.1745406E-16
  1.8755000E-02    2.6616803E-17
  1.8789999E-02    1.4846783E-16
  1.8825000E-02    2.4165382E-17
  1.8859999E-02   -1.6564320E-16
  1.8895000E-02   -9.0413713E-17
  1.8929999E-02    1.6046961E-16
  1.8965000E-02    1.6615675E-16
  1.8999999E-02   -1.2533794E-16
  1.9035000E-02   -2.4122871E-16
  1.9069999E-02    5.5442780E-17
  1.9105000E-02    3.0190740E-16
  1.9140000E-02    4.9609714E-17
  1.9175000E-02   -3.3177158E-16
  1.9210000E-02   -1.8321889E-16
  1.9245001E-02    3.1471599E-16
  1.9280000E-02    3.3139047E-16
  1.9315001E-02   -2.3739925E-16
  1.9350000E-02   -4.7266826E-16
  1.9385001E-02    9.3018763E-17
  1.9420000E-02    5.7878619E-16
  1.9455001E-02    1.1492963E-16
  1.9490000E-02   -6.1924128E-16
  1.9525001E-02   -3.6958218E-16
  1.9560000E-02    5.6542679E-16
  1.9595001E-02    6.4026141E-16
  1.9630000E-02   -3.9681741E-16
  1.9664999E-02   -8.8221790E-16
  1.9700000E-02    1.0772252E-16
  1.9734999E-02    1.0419082E-15
  1.9770000E-02    2.8578728E-16
  1.9804999E-02   -1.0655022E-15
  1.9840000E-02   -7.4206720E-16
  1.9874999E-02    9.0860716E-16
  1.9910000E-02    1.1957093E-15
  1.9944999E-02   -5.4610120E-16
  1.9980000E-02   -1.5593071E-15
  2.0014999E-02   -1.1233808E-17
  2.0050000E-02    1.7408736E-15
  2.0085000E-02    7.1521683E-16
  2.0120000E-02   -1.6547311E-15
  2.0155000E-02   -1.4741167E-15
  2.0190001E-02    1.2397976E-15
  2.0225000E-02    2.1514823E-15
  2.0260001E-02   -4.9054537E-16
  2.0295000E-02   -2.5952511E-15
  2.0330001E-02   -5.3800674E-16
  2.0365000E-02    2.6558542E-15
  2.0400001E-02    1.7183488E-15
  2.0435000E-02   -2.2165442E-15
  2.0470001E-02   -2.8525416E-15
  2.0505000E-02    1.2333115E-15
  2.0540001E-02    3.7004832E-15
  2.0575000E-02    2.4218538E-16
  2.0609999E-02   -4.0092564E-15
  2.0645000E-02   -2.0369300E-15
  2.0679999E-02    3.5681000E-15
  2.0715000E-02    3.8603522E-15
  2.0749999E-02   -2.2675578E-15
  2.0785000E-02   -5.3404123E-15
  2.0819999E-02    1.3954251E-16
  2.0855000E-02    6.0655568E-15
  2.0889999E-02    2.5888679E-15
  2.0925000E-02   -5.6752766E-15
  2.0959999E-02   -5.5115100E-15
  2.0995000E-02    3.9307335E-15
  2.1029999E-02    8.0493329E-15
  2.1065000E-02   -8.2484328E-16
  2.1100000E-02   -9.5512096E-15
  2.1135001E-02   -3.3721286E-15
  2.1170000E-02    9.4122665E-15
  2.1205001E-02    8.0912670E-15
  2.1240000E-02   -7.1857794E-15
  2.1275001E-02   -1.2490723E-14
  2.1310000E-02    2.7365892E-15
  2.1345001E-02    1.5572279E-14
  2.1380000E-02    3.6644128E-15
  2.1415001E-02   -1.6316640E-14
  2.1450000E-02   -1.1263413E-14
  2.1485001E-02    1.3913688E-14
  2.1520000E-02    1.8859998E-14
  2.1555001E-02   -7.9818032E-15
  2.1590000E-02   -2.4988661E-14
  2.1624999E-02   -1.3044320E-15
  2.1660000E-02    2.8065707E-14
  2.1694999E-02    1.3076011E-14
  2.1730000E-02   -2.6692715E-14
  2.1764999E-02   -2.5767887E-14
  2.1800000E-02    1.9986268E-14
  2.1834999E-02    3.7301518E-14
  2.1870000E-02   -7.8184741E-15
  2.1904999E-02   -4.5355579E-14
  2.1940000E-02   -9.0007415E-15
  2.1974999E-02    4.7704621E-14
  2.2010000E-02    2.8677334E-14
  2.2045000E-02   -4.2608566E-14
  2.2080000E-02   -4.8529086E-14
  2.2115000E-02    2.9272286E-14
  2.2150001E-02    6.5377059E-14
  2.2185000E-02   -8.0755079E-15
  2.2220001E-02   -7.5905807E-14
  2.2255000E-02   -1.9229266E-14
  2.2290001E-02    7.7274037E-14
  2.2325000E-02    4.9717863E-14
  2.2360001E-02   -6.7461167E-14
  2.2395000E-02   -7.9400496E-14
  2.2430001E-02    4.5909863E-14
  2.2465000E-02    1.0393906E-13
  2.2500001E-02   -1.3543162E-14
  2.2535000E-02   -1.1897094E-13
  2.2569999E-02   -2.6938883E-14
  2.2605000E-02    1.2099375E-13
  2.2639999E-02    7.1525536E-14
  2.2675000E-02   -1.0758693E-13
  2.2709999E-02   -1.1496774E-13
  2.2745000E-02    7.8178146E-14
  2.2779999E-02    1.5172305E-13
  2.2815000E-02   -3.3948742E-14
  2.2849999E-02   -1.7628454E-13
  2.2885000E-02   -2.1809980E-14
  2.2919999E-02    1.8414443E-13
  2.2955000E-02    8.4283207E-14
  2.2990000E-02   -1.7199909E-13
  2.3025000E-02   -1.4716848E-13
  2.3060000E-02    1.3860954E-13
  2.3095001E-02    2.0367073E-13
  2.3130000E-02   -8.4714604E-14
  2.3165001E-02   -2.4686527E-13
  2.3200000E-02    1.3365834E-14
  2.3235001E-02    2.7054034E-13
  2.3270000E-02    7.0284253E-14
  2.3305001E-02   -2.6980046E-13
  2.3340000E-02   -1.5930348E-13
  2.3375001E-02    2.4163535E-13
  2.3410000E-02    2.4557507E-13
  2.3445001E-02   -1.8538864E-13
  2.3480000E-02   -3.2050022E-13
  2.3514999E-02    1.0297478E-13
  2.3550000E-02    3.7580551E-13
  2.3584999E-02    1.1825601E-15
  2.3620000E-02   -4.0427923E-13
  2.3654999E-02   -1.2048827E-13
  2.3690000E-02    4.0029004E-13
  2.3724999E-02    2.4668692E-13
  2.3760000E-02   -3.6020118E-13
  2.3794999E-02   -3.7032280E-13
  2.3830000E-02    2.8282457E-13
  2.3864999E-02    4.8170615E-13
  2.3900000E-02   -1.6901897E-13
  2.3934999E-02   -5.7092281E-13
  2.3970000E-02    2.1794681E-14
  2.4005000E-02    6.2824149E-13
  2.4040001E-02    1.5397857E-13
  2.4075000E-02   -6.4383779E-13
  2.4110001E-02   -3.5123168E-13
  2.4145000E-02    6.0777793E-13
  2.4180001E-02    5.5979272E-13
  2.4215000E-02   -5.1070059E-13
  2.4250001E-02   -7.6588220E-13
  2.4285000E-02    3.4432949E-13
  2.4320001E-02    9.5046995E-13
  2.4355000E-02   -1.0382052E-13
  2.4390001E-02   -1.0889862E-12
  2.4425000E-02   -2.0945278E-13
  2.4460001E-02    1.1517350E-12
  2.4495000E-02    5.8402946E-13
  2.4529999E-02   -1.1067207E-12
  2.4565000E-02   -9.9500291E-13
  2.4599999E-02    9.2444823E-13
  2.4635000E-02    1.4019533E-12
  2.4669999E-02   -5.8470893E-13
  2.4705000E-02   -1.7494608E-12
  2.4739999E-02    8.4739826E-14
  2.4775000E-02    1.9716698E-12
  2.4809999E-02    5.5326853E-13
  2.4845000E-02   -2.0009693E-12
  2.4879999E-02   -1.2771860E-12
  2.4915000E-02    1.7806614E-12
  2.4950000E-02    2.0054143E-12
  2.4985000E-02   -1.2786719E-12
  2.5020000E-02   -2.6328666E-12
  2.5055001E-02    5.0104154E-13
  2.5090000E-02    3.0445288E-12
  2.5125001E-02    4.9945909E-13
  2.5160000E-02   -3.1342329E-12
  2.5195001E-02   -1.6219962E-12
  2.5230000E-02    2.8261202E-12
  2.5265001E-02    2.7261147E-12
  2.5300000E-02   -2.0938533E-12
  2.5335001E-02   -3.6487649E-12
  2.5370000E-02    9.7448904E-13
  2.5405001E-02    4.2296817E-12
  2.5440000E-02    4.2831353E-13
  2.5474999E-02   -4.3395470E-12
  2.5510000E-02   -1.9529708E-12
  2.5544999E-02    3.9062603E-12
  2.5580000E-02    3.4011539E-12
  2.5614999E-02   -2.9325784E-12
  2.5650000E-02   -4.5669141E-12
  2.5684999E-02    1.5020565E-12
  2.5720000E-02    5.2697317E-12
  2.5754999E-02    2.2904093E-13
  2.5790000E-02   -5.3847517E-12
  2.5824999E-02   -2.0528982E-12
  2.5860000E-02    4.8645571E-12
  2.5895000E-02    3.7408379E-12
  2.5930000E-02   -3.7476450E-12
  2.5965000E-02   -5.0771592E-12
  2.6000001E-02    2.1528840E-12
  2.6035000E-02    5.8902345E-12
  2.6070001E-02   -2.6106350E-13
  2.6105000E-02   -6.0748368E-12
  2.6140001E-02   -1.7110852E-12
  2.6175000E-02    5.6040463E-12
  2.6210001E-02    3.5408931E-12
  2.6245000E-02   -4.5286379E-12
  2.6280001E-02   -5.0274754E-12
  2.6315000E-02    2.9660577E-12
  2.6350001E-02    6.0134402E-12
  2.6385000E-02   -1.0825999E-12
  2.6419999E-02   -6.3985887E-12
  2.6455000E-02   -9.2681245E-13
  2.6489999E-02    6.1462116E-12
  2.6525000E-02    2.8588317E-12
  2.6559999E-02   -5.2837717E-12
  2.6595000E-02   -4.5211530E-12
  2.6629999E-02    3.8978733E-12
  2.6665000E-02    5.7493363E-12
  2.6699999E-02   -2.1255020E-12
  2.6735000E-02   -6.4213691E-12
  2.6769999E-02    1.4166655E-13
  2.6805000E-02    6.4687661E-12
  2.6839999E-02    1.8550328E-12
  2.6875000E-02   -5.8863413E-12
  2.6910000E-02   -3.6618937E-12
  2.6945001E-02    4.7362626E-12
  2.6980000E-02    5.0966336E-12