 -4.8000002E-03    1.0000000E-24
 -4.7650002E-03    1.0000002E-24
 -4.7300002E-03    1.0000001E-24
 -4.6950001E-03    1.0000000E-24
 -4.6600001E-03    1.0000002E-24
 -4.6250001E-03    1.0000002E-24
 -4.5900000E-03    1.0000002E-24
 -4.5550000E-03    1.0000000E-24
 -4.5200000E-03    1.0000000E-24
 -4.4849999E-03    1.0000002E-24
 -4.4499999E-03    1.0000002E-24
 -4.4149999E-03    9.9999972E-25
 -4.3799998E-03    1.0000001E-24
 -4.3449998E-03    1.0000003E-24
 -4.3100002E-03    1.0000001E-24
 -4.2750002E-03    1.0000002E-24
 -4.2400002E-03    1.0000002E-24
 -4.2050001E-03    9.9999992E-25
 -4.1700001E-03    1.0000002E-24
 -4.1350001E-03    1.0000001E-24
 -4.1000000E-03    9.9999953E-25
 -4.0650000E-03    1.0000002E-24
 -4.0300000E-03    1.0000005E-24
 -3.9949999E-03    9.9999943E-25
 -3.9599999E-03    9.9999943E-25
 -3.9249999E-03    1.0000004E-24
 -3.8900001E-03    1.0000001E-24
 -3.8550000E-03    9.9999982E-25
 -3.8200000E-03    1.0000005E-24
 -3.7849999E-03    1.0000005E-24
 -3.7499999E-03    9.9999982E-25
 -3.7150001E-03    1.0000004E-24
 -3.6800001E-03    1.0000006E-24
 -3.6450000E-03    9.9999963E-25
 -3.6100000E-03    9.9999963E-25
 -3.5750000E-03    1.0000005E-24
 -3.5399999E-03    1.0000000E-24
 -3.5049999E-03    9.9999953E-25
 -3.4700001E-03    1.0000004E-24
 -3.4350001E-03    1.0000005E-24
 -3.4000000E-03    9.9999953E-25
 -3.3650000E-03    9.9999972E-25
 -3.3300000E-03    1.0000006E-24
 -3.2949999E-03    1.0000002E-24
 -3.2599999E-03    9.9999953E-25
 -3.2250001E-03    9.9999972E-25
 -3.1900001E-03    1.0000004E-24
 -3.1550000E-03    1.0000001E-24
 -3.1200000E-03    1.0000002E-24
 -3.0850000E-03    1.0000008E-24
 -3.0499999E-03    1.0000005E-24
 -3.0149999E-03    9.9999972E-25
 -2.9800001E-03    9.9999992E-25
 -2.9450001E-03    1.0000004E-24
 -2.9100000E-03    9.9999982E-25
 -2.8750000E-03    9.9999963E-25
 -2.8400000E-03    1.0000002E-24
 -2.8049999E-03    1.0000003E-24
 -2.7699999E-03    9.9999982E-25
 -2.7350001E-03    1.0000002E-24
 -2.7000001E-03    1.0000009E-24
 -2.6650000E-03    1.0000000E-24
 -2.6300000E-03    9.9999903E-25
 -2.5950000E-03    9.9999963E-25
 -2.5599999E-03    1.0000002E-24
 -2.5249999E-03    1.0000007E-24
 -2.4900001E-03    1.0000010E-24
 -2.4550001E-03    1.0000007E-24
 -2.4200000E-03    1.0000001E-24
 -2.3850000E-03    9.9999963E-25
 -2.3500000E-03    9.9999923E-25
 -2.3149999E-03    9.9999933E-25
 -2.2799999E-03    9.9999972E-25
 -2.2450001E-03    1.0000005E-24
 -2.2100001E-03    1.0000005E-24
 -2.1750000E-03    9.9999972E-25
 -2.1400000E-03    9.9999933E-25
 -2.1050000E-03    1.0000004E-24
 -2.0699999E-03    1.0000010E-24
 -2.0349999E-03    1.0000001E-24
 -2.0000001E-03    9.9999943E-25
 -1.9650001E-03    1.0000007E-24
 -1.9300000E-03    1.0000011E-24
 -1.8950000E-03    9.9999953E-25
 -1.8600000E-03    9.9999963E-25
 -1.8250000E-03    1.0000010E-24
 -1.7900000E-03    9.9999992E-25
 -1.7550000E-03    9.9999903E-25
 -1.7199999E-03    1.0000001E-24
 -1.6850000E-03    1.0000004E-24
 -1.6500000E-03    1.0000000E-24
 -1.6150000E-03    1.0000002E-24
 -1.5800000E-03    9.9999903E-25
 -1.5450000E-03    9.9999884E-25
 -1.5100000E-03    1.0000004E-24
 -1.4750001E-03    1.0000010E-24
 -1.4400000E-03    1.0000005E-24
 -1.4050000E-03    1.0000008E-24
 -1.3700000E-03    1.0000003E-24
 -1.3350000E-03    9.9999953E-25
 -1.3000000E-03    9.9999943E-25
 -1.2650000E-03    9.9999933E-25
 -1.2300001E-03    1.0000000E-24
 -1.1950000E-03    1.0000010E-24
 -1.1600000E-03    9.9999982E-25
 -1.1250000E-03    9.9999893E-25
 -1.0900000E-03    1.0000005E-24
 -1.0550000E-03    1.0000005E-24
 -1.0200000E-03    9.9999923E-25
 -9.8500005E-04    9.9999972E-25
 -9.5000002E-04    1.0000003E-24
 -9.1499998E-04    1.0000000E-24
 -8.8000001E-04    1.0000005E-24
 -8.4499997E-04    1.0000008E-24
 -8.1000000E-04    1.0000005E-24
 -7.7500002E-04    9.9999992E-25
 -7.3999999E-04    9.9999943E-25
 -7.0500001E-04    9.9999953E-25
 -6.6999998E-04    9.9999972E-25
 -6.3500000E-04    9.9999982E-25
 -6.0000003E-04    1.0000005E-24
 -5.6499999E-04    1.0000005E-24
 -5.3000002E-04    9.9999953E-25
 -4.9499999E-04    9.9999992E-25
 -4.6000001E-04    1.0000008E-24
 -4.2500001E-04    1.0000004E-24
 -3.9000000E-04    1.0000002E-24
 -3.5500000E-04    1.0000005E-24
 -3.1999999E-04    1.0000006E-24
 -2.8499999E-04    9.9999943E-25
 -2.5000001E-04    9.9999913E-25
 -2.1499999E-04    1.0000007E-24
 -1.8000000E-04    1.0000005E-24
 -1.4500000E-04    9.9999893E-25
 -1.1000000E-04    9.9999963E-25
 -7.5000004E-05    1.0000012E-24
 -3.9999999E-05    1.0000000E-24
 -4.9999999E-06    9.9999864E-25
  2.9999999E-05    1.0000000E-24
  6.5000000E-05    1.0000011E-24
  9.9999997E-05    9.9999943E-25
  1.3499999E-04    9.9999943E-25
  1.7000000E-04    1.0000020E-24
  2.0500000E-04    1.0000013E-24
  2.3999999E-04    9.9999854E-25
  2.7500000E-04    9.9999893E-25
  3.1000000E-04    1.0000008E-24
  3.4500001E-04    1.0000001E-24
  3.8000001E-04    9.9999943E-25
  4.1499999E-04    1.0000012E-24
  4.4999999E-04    1.0000006E-24
  4.8500000E-04    9.9999844E-25
  5.2000000E-04    9.9999933E-25
  5.5499998E-04    1.0000003E-24
  5.9000001E-04    9.9999963E-25
  6.2499999E-04    1.0000009E-24
  6.6000002E-04    1.0000017E-24
  6.9500000E-04    9.9999972E-25
  7.3000003E-04    9.9999943E-25
  7.6500000E-04    1.0000001E-24
  7.9999998E-04    1.0000003E-24
  8.3500001E-04    1.0000012E-24
  8.6999999E-04    1.0000005E-24
  9.0500002E-04    9.9999913E-25
  9.4000000E-04    1.0000005E-24
  9.7499997E-04    1.0000006E-24
  1.0100000E-03    9.9999815E-25
  1.0450000E-03    9.9999982E-25
  1.0800000E-03    1.0000012E-24
  1.1150000E-03    9.9999903E-25
  1.1500000E-03    9.9999963E-25
  1.1849999E-03    1.0000015E-24
  1.2200000E-03    9.9999953E-25
  1.2550000E-03    9.9999913E-25
  1.2900000E-03    1.0000007E-24
  1.3250000E-03    9.9999972E-25
  1.3600000E-03    9.9999953E-25
  1.3950000E-03    1.0000001E-24
  1.4299999E-03    9.9999972E-25
  1.4650000E-03    1.0000002E-24
  1.5000000E-03    1.0000009E-24
  1.5350000E-03    1.0000004E-24
  1.5700000E-03    1.0000007E-24
  1.6050000E-03    1.0000003E-24
  1.6400000E-03    9.9999903E-25
  1.6749999E-03    9.9999972E-25
  1.7100000E-03    1.0000006E-24
  1.7450000E-03    9.9999953E-25
  1.7800000E-03    9.9999953E-25
  1.8150000E-03    1.0000006E-24
  1.8500000E-03    1.0000000E-24
  1.8850000E-03    9.9999963E-25
  1.9200000E-03    1.0000002E-24
  1.9550000E-03    1.0000002E-24
  1.9900000E-03    9.9999943E-25
  2.0250001E-03    9.9999913E-25
  2.0600001E-03    1.0000000E-24
  2.0949999E-03    1.0000009E-24
  2.1299999E-03    1.0000002E-24
  2.1650000E-03    1.0000002E-24
  2.2000000E-03    1.0000015E-24
  2.2350000E-03    1.0000005E-24
  2.2700001E-03    9.9999844E-25
  2.3050001E-03    1.0000006E-24
  2.3399999E-03    1.0000012E-24
  2.3749999E-03    9.9999775E-25
  2.4100000E-03    9.9999982E-25
  2.4450000E-03    1.0000035E-24
  2.4800000E-03    9.9999992E-25
  2.5150001E-03    9.9999706E-25
  2.5500001E-03    1.0000006E-24
  2.5849999E-03    1.0000008E-24
  2.6199999E-03    9.9999775E-25
  2.6550000E-03    9.9999953E-25
  2.6900000E-03    1.0000011E-24
  2.7250000E-03    9.9999933E-25
  2.7600001E-03    9.9999982E-25
  2.7950001E-03    1.0000014E-24
  2.8299999E-03    1.0000005E-24
  2.8649999E-03    1.0000001E-24
  2.9000000E-03    1.0000003E-24
  2.9350000E-03    1.0000005E-24
  2.9700000E-03    1.0000010E-24
  3.0050001E-03    9.9999972E-25
  3.0400001E-03    9.9999815E-25
  3.0749999E-03    9.9999982E-25
  3.1099999E-03    1.0000011E-24
  3.1450000E-03    1.0000007E-24
  3.1800000E-03    1.0000003E-24
  3.2150000E-03    9.9999982E-25
  3.2500001E-03    9.9999923E-25
  3.2850001E-03    9.9999953E-25
  3.3199999E-03    9.9999943E-25
  3.3549999E-03    9.9999992E-25
  3.3900000E-03    1.0000021E-24
  3.4250000E-03    1.0000008E-24
  3.4600000E-03    9.9999805E-25
  3.4950001E-03    9.9999972E-25
  3.5300001E-03    1.0000015E-24
  3.5649999E-03    9.9999992E-25
  3.5999999E-03    1.0000001E-24
  3.6350000E-03    1.0000010E-24
  3.6700000E-03    9.9999933E-25
  3.7050000E-03    9.9999893E-25
  3.7400001E-03    9.9999992E-25
  3.7750001E-03    1.0000002E-24
  3.8099999E-03    1.0000014E-24
  3.8449999E-03    1.0000011E-24
  3.8800000E-03    1.0000001E-24
  3.9149998E-03    1.0000004E-24
  3.9499998E-03    9.9999953E-25
  3.9849998E-03    9.9999893E-25
  4.0199999E-03    1.0000003E-24
  4.0549999E-03    1.0000003E-24
  4.0899999E-03    9.9999923E-25
  4.1250000E-03    1.0000007E-24
  4.1600000E-03    1.0000013E-24
  4.1950000E-03    1.0000000E-24
  4.2300001E-03    1.0000000E-24
  4.2650001E-03    1.0000005E-24
  4.3000001E-03    9.9999963E-25
  4.3350002E-03    9.9999923E-25
  4.3700002E-03    1.0000001E-24
  4.4049998E-03    1.0000010E-24
  4.4399998E-03    1.0000014E-24
  4.4749998E-03    9.9999963E-25
  4.5099999E-03    9.9999874E-25
  4.5449999E-03    9.9999982E-25
  4.5799999E-03    9.9999953E-25
  4.6150000E-03    9.9999824E-25
  4.6500000E-03    9.9999913E-25
  4.6850001E-03    1.0000004E-24
  4.7200001E-03    1.0000012E-24
  4.7550001E-03    1.0000019E-24
  4.7900002E-03    1.0000008E-24
  4.8250002E-03    1.0000004E-24
  4.8600002E-03    1.0000010E-24
  4.8949998E-03    9.9999963E-25
  4.9299998E-03    9.9999923E-25
  4.9649999E-03    1.0000012E-24
  4.9999999E-03    9.9999943E-25
  5.0349999E-03    9.9999736E-25
  5.0700000E-03    1.0000001E-24
  5.1050000E-03    1.0000008E-24
  5.1400000E-03    9.9999953E-25
  5.1750001E-03    1.0000006E-24
  5.2100001E-03    9.9999992E-25
  5.2450001E-03    9.9999903E-25
  5.2800002E-03    1.0000012E-24
  5.3150002E-03    1.0000012E-24
  5.3500002E-03    9.9999874E-25
  5.3849998E-03    9.9999972E-25
  5.4199998E-03    1.0000005E-24
  5.4549999E-03    9.9999982E-25
  5.4899999E-03    1.0000002E-24
  5.5249999E-03    1.0000000E-24
  5.5600000E-03    1.0000001E-24
  5.5950000E-03    1.0000010E-24
  5.6300000E-03    1.0000002E-24
  5.6650001E-03    9.9999923E-25
  5.7000001E-03    1.0000002E-24
  5.7350001E-03    1.0000000E-24
  5.7700002E-03    1.0000000E-24
  5.8050002E-03    1.0000014E-24
  5.8400002E-03    9.9999893E-25
  5.8749998E-03    9.9999815E-25
  5.9099998E-03    1.0000020E-24
  5.9449999E-03    1.0000012E-24
  5.9799999E-03    9.9999844E-25
  6.0149999E-03    1.0000011E-24
  6.0500000E-03    1.0000012E-24
  6.0850000E-03    9.9999844E-25
  6.1200000E-03    9.9999982E-25
  6.1550001E-03    1.0000000E-24
  6.1900001E-03    9.9999834E-25
  6.2250001E-03    1.0000009E-24
  6.2600002E-03    1.0000016E-24
  6.2950002E-03    9.9999903E-25
  6.3299998E-03    1.0000017E-24
  6.3649998E-03    1.0000027E-24
  6.3999998E-03    9.9999736E-25
  6.4349999E-03    9.9999844E-25
  6.4699999E-03    1.0000025E-24
  6.5049999E-03    9.9999923E-25
  6.5400000E-03    9.9999815E-25
  6.5750000E-03    1.0000023E-24
  6.6100000E-03    1.0000012E-24
  6.6450001E-03    9.9999805E-25
  6.6800001E-03    9.9999913E-25
  6.7150001E-03    1.0000009E-24
  6.7500002E-03    1.0000007E-24
  6.7850002E-03    9.9999992E-25
  6.8199998E-03    9.9999933E-25
  6.8549998E-03    9.9999953E-25
  6.8899998E-03    9.9999884E-25
  6.9249999E-03    9.9999785E-25
  6.9599999E-03    9.9999953E-25
  6.9949999E-03    1.0000025E-24
  7.0300000E-03    1.0000021E-24
  7.0650000E-03    9.9999982E-25
  7.1000000E-03    9.9999972E-25
  7.1350001E-03    1.0000009E-24
  7.1700001E-03    9.9999953E-25
  7.2050001E-03    9.9999696E-25
  7.2400002E-03    9.9999903E-25
  7.2750002E-03    1.0000025E-24
  7.3099998E-03    1.0000006E-24
  7.3449998E-03    9.9999874E-25
  7.3799998E-03    1.0000010E-24
  7.4149999E-03    1.0000017E-24
  7.4499999E-03    9.9999893E-25
  7.4850000E-03    9.9999785E-25
  7.5200000E-03    1.0000000E-24
  7.5550000E-03    1.0000017E-24
  7.5900001E-03    1.0000009E-24
  7.6250001E-03    9.9999943E-25
  7.6600001E-03    1.0000000E-24
  7.6950002E-03    1.0000015E-24
  7.7300002E-03    9.9999992E-25
  7.7650002E-03    9.9999824E-25
  7.7999998E-03    9.9999982E-25
  7.8349998E-03    1.0000018E-24
  7.8699999E-03    1.0000005E-24
  7.9049999E-03    9.9999923E-25
  7.9399999E-03    9.9999943E-25
  7.9750000E-03    1.0000001E-24
  8.0100000E-03    1.0000003E-24
  8.0450000E-03    1.0000000E-24
  8.0800001E-03    1.0000007E-24
  8.1150001E-03    1.0000014E-24
  8.1500001E-03    1.0000003E-24
  8.1850002E-03    9.9999893E-25
  8.2200002E-03    9.9999982E-25
  8.2550002E-03    1.0000005E-24
  8.2900003E-03    9.9999903E-25
  8.3250003E-03    9.9999953E-25
  8.3600003E-03    1.0000019E-24
  8.3950004E-03    1.0000019E-24
  8.4300004E-03    1.0000005E-24
  8.4650004E-03    9.9999972E-25
  8.5000005E-03    9.9999805E-25
  8.5349996E-03    9.9999765E-25
  8.5699996E-03    1.0000003E-24
  8.6049996E-03    1.0000018E-24
  8.6399997E-03    1.0000007E-24
  8.6749997E-03    1.0000010E-24
  8.7099997E-03    1.0000018E-24
  8.7449998E-03    9.9999893E-25
  8.7799998E-03    9.9999667E-25
  8.8149998E-03    9.9999963E-25
  8.8499999E-03    1.0000021E-24
  8.8849999E-03    9.9999933E-25
  8.9199999E-03    9.9999923E-25
  8.9550000E-03    1.0000028E-24
  8.9900000E-03    1.0000007E-24
  9.0250000E-03    9.9999746E-25
  9.0600001E-03    1.0000015E-24
  9.0950001E-03    1.0000027E-24
  9.1300001E-03    9.9999716E-25
  9.1650002E-03    9.9999795E-25
  9.2000002E-03    1.0000027E-24
  9.2350002E-03    9.9999972E-25
  9.2700003E-03    9.9999736E-25
  9.3050003E-03    1.0000013E-24
  9.3400003E-03    1.0000013E-24
  9.3750004E-03    9.9999893E-25
  9.4100004E-03    1.0000001E-24
  9.4450004E-03    9.9999943E-25
  9.4799995E-03    9.9999943E-25
  9.5149996E-03    1.0000026E-24
  9.5499996E-03    1.0000019E-24
  9.5849996E-03    9.9999943E-25
  9.6199997E-03    1.0000016E-24
  9.6549997E-03    1.0000019E-24
  9.6899997E-03    9.9999834E-25
  9.7249998E-03    9.9999637E-25
  9.7599998E-03    9.9999765E-25
  9.7949998E-03    1.0000013E-24
  9.8299999E-03    1.0000028E-24
  9.8649999E-03    9.9999874E-25
  9.8999999E-03    9.9999726E-25
  9.9350000E-03    1.0000016E-24
  9.9700000E-03    1.0000027E-24
  1.0005000E-02    1.0000001E-24
  1.0040000E-02    9.9999874E-25
  1.0075000E-02    9.9999923E-25
  1.0110000E-02    1.0000031E-24
  1.0145000E-02    1.0000054E-24
  1.0180000E-02    9.9999617E-25
  1.0215000E-02    9.9998927E-25
  1.0250000E-02    1.0000028E-24
  1.0285000E-02    1.0000159E-24
  1.0320000E-02    1.0000013E-24
  1.0355000E-02    9.9997971E-25
  1.0390000E-02    9.9999292E-25
  1.0425000E-02    1.0000278E-24
  1.0460000E-02    1.0000216E-24
  1.0495000E-02    9.9996669E-25
  1.0530000E-02    9.9995219E-25
  1.0565000E-02    1.0000300E-24
  1.0600000E-02    1.0000828E-24
  1.0635000E-02    9.9998967E-25
  1.0670000E-02    9.9987499E-25
  1.0705000E-02    9.9996876E-25
  1.0740000E-02    1.0001726E-24
  1.0775000E-02    1.0001076E-24
  1.0810000E-02    9.9977776E-25
  1.0845000E-02    9.9975488E-25
  1.0880000E-02    1.0002437E-24
  1.0915000E-02    1.0004480E-24
  1.0950000E-02    9.9980103E-25
  1.0985000E-02    9.9927407E-25
  1.1020000E-02    1.0000066E-24
  1.1055000E-02    1.0010626E-24
  1.1090000E-02    1.0003837E-24
  1.1125000E-02    9.9858569E-25
  1.1160000E-02    9.9892530E-25
  1.1195000E-02    1.0016921E-24
  1.1230000E-02    1.0022213E-24
  1.1265000E-02    9.9837428E-25
  1.1300000E-02    9.9612632E-25
  1.1335000E-02    1.0009095E-24
  1.1370000E-02    1.0060001E-24
  1.1405000E-02    1.0008701E-24
  1.1440000E-02    9.9152322E-25
  1.1475000E-02    9.9562046E-25
  1.1510000E-02    1.0108285E-24
  1.1545000E-02    1.0103492E-24
  1.1580000E-02    9.8813003E-25
  1.1615000E-02    9.8066583E-25
  1.1650000E-02    1.0103056E-24
  1.1685000E-02    1.0316209E-24
  1.1720000E-02    9.9655368E-25
  1.1755000E-02    9.5310313E-25
  1.1790000E-02    9.8775059E-25
  1.1825000E-02    1.0629476E-24
  1.1860000E-02    1.0408271E-24
  1.1895000E-02    9.2467061E-25
  1.1930000E-02    9.1330726E-25
  1.1965000E-02    1.0765960E-24
  1.2000000E-02    1.1517820E-24
  1.2035000E-02    9.4461834E-25
  1.2070000E-02    7.6299633E-25
  1.2105000E-02    9.9261677E-25
  1.2140000E-02    1.3348160E-24
  1.2175000E-02    1.1334110E-24
  1.2210000E-02    5.7250136E-25
  1.2245000E-02    6.5440159E-25
  1.2280000E-02    1.4837335E-24
  1.2315000E-02    1.6664681E-24
  1.2350000E-02    5.5692298E-25
  1.2385000E-02   -1.0102500E-25
  1.2420000E-02    1.2296661E-24
  1.2455000E-02    2.6384319E-24
  1.2490000E-02    1.2673890E-24
  1.2525000E-02   -1.2077447E-24
  1.2560000E-02   -1.6981121E-25
  1.2595000E-02    3.6746845E-24
  1.2630000E-02    3.6090607E-24
  1.2665000E-02   -1.7980018E-24
  1.2700000E-02   -3.6587396E-24
  1.2735000E-02    3.2266014E-24
  1.2770000E-02    8.3027129E-24
  1.2805000E-02    5.3240494E-25
  1.2840000E-02   -9.3207016E-24
  1.2875000E-02   -2.0712233E-24
  1.2910000E-02    1.4220379E-23
  1.2945000E-02    1.0020982E-23
  1.2980000E-02   -1.4051282E-23
  1.3015000E-02   -1.6905589E-23
  1.3050000E-02    1.5348299E-23
  1.3085000E-02    3.0843789E-23
  1.3120000E-02   -8.0809846E-24
  1.3155000E-02   -4.3355710E-23
  1.3190000E-02   -2.4883452E-24
  1.3225000E-02    6.0585571E-23
  1.3260000E-02    2.7204556E-23
  1.3295000E-02   -7.1186947E-23
  1.3330000E-02   -6.0801801E-23
  1.3365000E-02    7.7542850E-23
  1.3400000E-02    1.1295887E-22
  1.3435000E-02   -6.3296628E-23
  1.3470000E-02   -1.7469062E-22
  1.3505000E-02    2.5722731E-23
  1.3540000E-02    2.4868304E-22
  1.3575000E-02    5.5918872E-23
  1.3610000E-02   -3.1488167E-22
  1.3645000E-02   -1.8600526E-22
  1.3680000E-02    3.6096478E-22
  1.3715000E-02    3.8245751E-22
  1.3750000E-02   -3.4799823E-22
  1.3785000E-02   -6.3841753E-22
  1.3820000E-02    2.4195323E-22
  1.3855000E-02    9.4688340E-22
  1.3890000E-02    1.5740710E-23
  1.3925000E-02   -1.2624897E-21
  1.3960000E-02   -4.7115893E-22
  1.3995000E-02    1.5230394E-21
  1.4030000E-02    1.1767085E-21
  1.4065000E-02   -1.6117730E-21
  1.4100000E-02   -2.1451439E-21
  1.4135000E-02    1.3818848E-21
  1.4170000E-02    3.3523370E-21
  1.4205000E-02   -6.3685344E-22
  1.4240000E-02   -4.6777185E-21
  1.4275000E-02   -8.2549404E-22
  1.4310000E-02    5.9023662E-21
  1.4345000E-02    3.2044234E-21
  1.4380000E-02   -6.6583960E-21
  1.4415000E-02   -6.6186473E-21
  1.4450000E-02    6.4107107E-21
  1.4485000E-02    1.1014102E-20
  1.4520000E-02   -4.4944915E-21
  1.4555000E-02   -1.6095944E-20
  1.4590000E-02    1.3684671E-22
  1.4625000E-02    2.1164597E-20
  1.4660000E-02    7.4009715E-21
  1.4695000E-02   -2.5041933E-20
  1.4730000E-02   -1.8634801E-20
  1.4765000E-02    2.6025996E-20
  1.4800000E-02    3.3635946E-20
  1.4835000E-02   -2.1826453E-20
  1.4870000E-02   -5.1601837E-20
  1.4905000E-02    9.8415057E-21
  1.4940000E-02    7.0521509E-20
  1.4975000E-02    1.2587508E-20
  1.5010000E-02   -8.6823992E-20
  1.5045000E-02   -4.7460241E-20
  1.5080000E-02    9.5130055E-20
  1.5115000E-02    9.5483507E-20
  1.5150000E-02   -8.8272682E-20
  1.5185000E-02   -1.5473870E-19
  1.5220000E-02    5.7837548E-20
  1.5255000E-02    2.1972879E-19
  1.5290000E-02    4.9767596E-21
  1.5325000E-02   -2.7988145E-19
  1.5360000E-02   -1.0727346E-19
  1.5395000E-02    3.1928823E-19
  1.5430000E-02    2.5228872E-19
  1.5465000E-02   -3.1629823E-19
  1.5500000E-02   -4.3587357E-19
  1.5535000E-02    2.4521263E-19
  1.5570000E-02    6.4286895E-19
  1.5605000E-02   -7.9073581E-20
  1.5640000E-02   -8.4395454E-19
  1.5675001E-02   -2.0486559E-19
  1.5710000E-02    9.9332718E-19
  1.5745001E-02    6.1858112E-19
  1.5780000E-02   -1.0296070E-18
  1.5814999E-02   -1.1529393E-18
  1.5850000E-02    8.7857552E-19
  1.5884999E-02    1.7691716E-18
  1.5920000E-02   -4.6155365E-19
  1.5954999E-02   -2.3870896E-18
  1.5990000E-02   -2.8885620E-19
  1.6024999E-02    2.8819492E-18
  1.6060000E-02    1.4090066E-18
  1.6094999E-02   -3.0844955E-18
  1.6130000E-02   -2.8787897E-18
  1.6164999E-02    2.7957718E-18
  1.6200000E-02    4.6021438E-18
  1.6235000E-02   -1.7982710E-18
  1.6270000E-02   -6.3636601E-18
  1.6305000E-02   -8.9340256E-20
  1.6340001E-02    7.8408996E-18
  1.6375000E-02    2.9717624E-18
  1.6410001E-02   -8.5933933E-18
  1.6445000E-02   -6.8029588E-18
  1.6480001E-02    8.0970526E-18
  1.6515000E-02    1.1326715E-17
  1.6550001E-02   -5.8043264E-18
  1.6585000E-02   -1.6017767E-17
  1.6620001E-02    1.2515022E-18
  1.6655000E-02    2.0062273E-17
  1.6690001E-02    5.8273861E-18
  1.6725000E-02   -2.2353504E-17
  1.6759999E-02   -1.5297074E-17
  1.6795000E-02    2.1619322E-17
  1.6829999E-02    2.6521743E-17
  1.6865000E-02   -1.6524863E-17
  1.6899999E-02   -3.8209200E-17
  1.6935000E-02    5.9840632E-18
  1.6969999E-02    4.8402493E-17
  1.7005000E-02    1.0575295E-17
  1.7039999E-02   -5.4485451E-17
  1.7075000E-02   -3.2807853E-17
  1.7109999E-02    5.3479751E-17
  1.7145000E-02    5.9108520E-17
  1.7180000E-02   -4.2396557E-17
  1.7215000E-02   -8.6443306E-17
  1.7250000E-02    1.8818559E-17
  1.7285001E-02    1.1020300E-16
  1.7320000E-02    1.8259076E-17
  1.7355001E-02   -1.2460560E-16
  1.7390000E-02   -6.7862347E-17
  1.7425001E-02    1.2299194E-16
  1.7460000E-02    1.2614101E-16
  1.7495001E-02   -9.9040863E-17
  1.7530000E-02   -1.8600400E-16
  1.7565001E-02    4.8072167E-17
  1.7600000E-02    2.3731592E-16
  1.7635001E-02    3.1545562E-17
  1.7670000E-02   -2.6758337E-16
  1.7704999E-02   -1.3671227E-16
  1.7740000E-02    2.6315048E-16
  1.7774999E-02    2.5836797E-16
  1.7810000E-02   -2.1155454E-16
  1.7844999E-02   -3.8096503E-16
  1.7880000E-02    1.0428011E-16
  1.7914999E-02    4.8270417E-16
  1.7950000E-02    5.9647451E-17
  1.7984999E-02   -5.3850162E-16
  1.8020000E-02   -2.7195869E-16
  1.8054999E-02    5.2131553E-16
  1.8090000E-02    5.1089036E-16
  1.8124999E-02   -4.0906567E-16
  1.8160000E-02   -7.4342859E-16
  1.8195000E-02    1.8887912E-16
  1.8230001E-02    9.2589161E-16
  1.8265000E-02    1.3574247E-16
  1.8300001E-02   -1.0092485E-15
  1.8335000E-02   -5.4160626E-16
  1.8370001E-02    9.4599551E-16
  1.8405000E-02    9.8128322E-16
  1.8440001E-02   -7.0012546E-16
  1.8475000E-02   -1.3861545E-15
  1.8510001E-02    2.5860988E-16
  1.8545000E-02    1.6713026E-15
  1.8580001E-02    3.5853886E-16
  1.8615000E-02   -1.7485305E-15
  1.8650001E-02   -1.0907473E-15
  1.8685000E-02    1.5412095E-15
  1.8719999E-02    1.8371033E-15
  1.8755000E-02   -1.0028529E-15
  1.8789999E-02   -2.4615421E-15
  1.8825000E-02    1.3875572E-16
  1.8859999E-02    2.8115946E-15
  1.8895000E-02    9.8430777E-16
  1.8929999E-02   -2.7384668E-15
  1.8965000E-02   -2.2210534E-15
  1.8999999E-02    2.1351306E-15
  1.9035000E-02    3.3602919E-15
  1.9069999E-02   -9.7449319E-16
  1.9105000E-02   -4.1503793E-15
  1.9140000E-02   -6.7402769E-16
  1.9175000E-02    4.3308905E-15
  1.9210000E-02    2.6126342E-15
  1.9245001E-02   -3.6892033E-15
  1.9280000E-02   -4.5252337E-15
  1.9315001E-02    2.1177124E-15
  1.9350000E-02    5.9919090E-15
  1.9385001E-02    3.1401097E-16
  1.9420000E-02   -6.5708513E-15
  1.9455001E-02   -3.3387735E-15
  1.9490000E-02    5.8685831E-15
  1.9525001E-02    6.4670733E-15
  1.9560000E-02   -3.6553965E-15
  1.9595001E-02   -9.0522462E-15
  1.9630000E-02   -6.3579855E-17
  1.9664999E-02    1.0318131E-14
  1.9700000E-02    4.9107137E-15
  1.9734999E-02   -9.5650298E-15
  1.9770000E-02   -1.0161343E-14
  1.9804999E-02    6.2953056E-15
  1.9840000E-02    1.4737755E-14
  1.9874999E-02   -4.3274249E-16
  1.9910000E-02   -1.7390244E-14
  1.9944999E-02   -7.5698276E-15
  1.9980000E-02    1.6850645E-14
  2.0014999E-02    1.6615388E-14
  2.0050000E-02   -1.2158806E-14
  2.0085000E-02   -2.5024601E-14
  2.0120000E-02    2.9399120E-15
  2.0155000E-02    3.0677324E-14
  2.0190001E-02    1.0265108E-14
  2.0225000E-02   -3.1415161E-14
  2.0260001E-02   -2.5915195E-14
  2.0295000E-02    2.5411580E-14
  2.0330001E-02    4.1416001E-14
  2.0365000E-02   -1.1736150E-14
  2.0400001E-02   -5.3394186E-14
  2.0435000E-02   -9.2357965E-15
  2.0470001E-02    5.8155425E-14
  2.0505000E-02    3.5404724E-14
  2.0540001E-02   -5.2440464E-14
  2.0575000E-02   -6.2981833E-14
  2.0609999E-02    3.4191786E-14
  2.0645000E-02    8.6795676E-14
  2.0679999E-02   -3.3280316E-15
  2.0715000E-02   -1.0092867E-13
  2.0749999E-02   -3.7661555E-14
  2.0785000E-02    9.9806326E-14
  2.0819999E-02    8.3547684E-14
  2.0855000E-02   -7.9478674E-14
  2.0889999E-02   -1.2682615E-13
  2.0925000E-02    3.8723616E-14
  2.0959999E-02    1.5854947E-13
  2.0995000E-02    1.9928036E-14
  2.1029999E-02   -1.6989483E-13
  2.1065000E-02   -8.9885131E-14
  2.1100000E-02    1.5392403E-13
  2.1135001E-02    1.6086173E-13
  2.1170000E-02   -1.0739544E-13
  2.1205001E-02   -2.2017964E-13
  2.1240000E-02    3.2234228E-14
  2.1275001E-02    2.5482600E-13
  2.1310000E-02    6.3844309E-14
  2.1345001E-02   -2.5399271E-13
  2.1380000E-02   -1.6793581E-13
  2.1415001E-02    2.1139125E-13
  2.1450000E-02    2.6326659E-13
  2.1485001E-02   -1.2756750E-13
  2.1520000E-02   -3.3217835E-13
  2.1555001E-02    1.0575234E-14
  2.1590000E-02    3.5922673E-13
  2.1624999E-02    1.2428009E-13
  2.1660000E-02   -3.3469798E-13
  2.1694999E-02   -2.5675686E-13
  2.1730000E-02    2.5691526E-13
  2.1764999E-02    3.6465915E-13
  2.1800000E-02   -1.3389118E-13
  2.1834999E-02   -4.2845621E-13
  2.1870000E-02   -1.7864763E-14
  2.1904999E-02    4.3483357E-13
  2.1940000E-02    1.7517074E-13
  2.1974999E-02   -3.8048438E-13
  2.2010000E-02   -3.1296444E-13
  2.2045000E-02    2.7288179E-13
  2.2080000E-02    4.0881930E-13
  2.2115000E-02   -1.2966074E-13
  2.2150001E-02   -4.4795201E-13
  2.2185000E-02   -2.4752244E-14
  2.2220001E-02    4.2647580E-13
  2.2255000E-02    1.6392119E-13
  2.2290001E-02   -3.5289870E-13
  2.2325000E-02   -2.6544346E-13
  2.2360001E-02    2.4623050E-13
  2.2395000E-02    3.1588341E-13
  2.2430001E-02   -1.3207003E-13
  2.2465000E-02   -3.1443221E-13
  2.2500001E-02    3.6420313E-14
  2.2535000E-02    2.7337242E-13
  2.2569999E-02    2.0552968E-14
  2.2605000E-02   -2.1597711E-13
  2.2639999E-02   -3.0485027E-14
  2.2675000E-02    1.7077016E-13
  2.2709999E-02   -2.0104380E-16
  2.2745000E-02   -1.6458193E-13
  2.2779999E-02    4.9999833E-14
  2.2815000E-02    2.1464057E-13
  2.2849999E-02   -8.6195170E-14
  2.2885000E-02   -3.2260167E-13
  2.2919999E-02    7.1521849E-14
  2.2955000E-02    4.7106210E-13
  2.2990000E-02    2.7023822E-14
  2.3025000E-02   -6.2388614E-13
  2.3060000E-02   -2.2883778E-13
  2.3095001E-02    7.3082290E-13
  2.3130000E-02    5.3202657E-13
  2.3165001E-02   -7.3566451E-13
  2.3200000E-02   -9.0861411E-13
  2.3235001E-02    5.8715267E-13
  2.3270000E-02    1.3039820E-12
  2.3305001E-02   -2.5132885E-13
  2.3340000E-02   -1.6418946E-12
  2.3375001E-02   -2.7794263E-13
  2.3410000E-02    1.8332547E-12
  2.3445001E-02    9.7002397E-13
  2.3480000E-02   -1.7902481E-12
  2.3514999E-02   -1.7544157E-12
  2.3550000E-02    1.4421446E-12
  2.3584999E-02    2.5223311E-12
  2.3620000E-02   -7.5370824E-13
  2.3654999E-02   -3.1374417E-12
  2.3690000E-02   -2.6020749E-13
  2.3724999E-02    3.4519729E-12
  2.3760000E-02    1.5233240E-12
  2.3794999E-02   -3.3305880E-12
  2.3830000E-02   -2.8956100E-12
  2.3864999E-02    2.6778844E-12
  2.3900000E-02    4.1818064E-12
  2.3934999E-02   -1.4661223E-12
  2.3970000E-02   -5.1529558E-12
  2.4005000E-02   -2.4287950E-13
  2.4040001E-02    5.5794870E-12
  2.4075000E-02    2.2868441E-12
  2.4110001E-02   -5.2735342E-12
  2.4145000E-02   -4.4095986E-12
  2.4180001E-02    4.1331201E-12
  2.4215000E-02    6.2874805E-12
  2.4250001E-02   -2.1803950E-12
  2.4285000E-02   -7.5761324E-12
  2.4320001E-02   -4.1780137E-13
  2.4355000E-02    7.9704854E-12
  2.4390001E-02    3.3533567E-12
  2.4425000E-02   -7.2698353E-12
  2.4460001E-02   -6.2106847E-12
  2.4495000E-02    5.4328438E-12
  2.4529999E-02    8.5276820E-12
  2.4565000E-02   -2.6103581E-12
  2.4599999E-02   -9.8776768E-12
  2.4635000E-02   -8.5814228E-13
  2.4669999E-02    9.9541000E-12
  2.4705000E-02    4.4861476E-12
  2.4739999E-02   -8.6425155E-12
  2.4775000E-02   -7.7180484E-12
  2.4809999E-02    6.0598618E-12
  2.4845000E-02    1.0028532E-11
  2.4879999E-02   -2.5510173E-12
  2.4915000E-02   -1.1026559E-11
  2.4950000E-02   -1.3649466E-12
  2.4985000E-02    1.0536421E-11
  2.5020000E-02    5.0872414E-12
  2.5055001E-02   -8.6387685E-12
  2.5090000E-02   -8.0478827E-12
  2.5125001E-02    5.6579745E-12
  2.5160000E-02    9.8213460E-12
  2.5195001E-02   -2.0992338E-12
  2.5230000E-02   -1.0207692E-11
  2.5265001E-02   -1.4555424E-12
  2.5300000E-02    9.2659344E-12
  2.5335001E-02    4.4687032E-12
  2.5370000E-02   -7.2884242E-12
  2.5405001E-02   -6.5540104E-12
  2.5440000E-02    4.7232275E-12
  2.5474999E-02    7.5433982E-12
  2.5510000E-02   -2.0680575E-12
  2.5544999E-02   -7.5034336E-12
  2.5580000E-02   -2.4323666E-13
  2.5614999E-02    6.6961016E-12
  2.5650000E-02    1.9341109E-12
  2.5684999E-02   -5.4919090E-12
  2.5720000E-02   -2.9322426E-12
  2.5754999E-02    4.2596482E-12
  2.5790000E-02    3.3551317E-12
  2.5824999E-02   -3.2719443E-12
  2.5860000E-02   -3.4519193E-12
  2.5895000E-02    2.6418798E-12
  2.5930000E-02    3.5154058E-12
  2.5965000E-02   -2.3038748E-12
  2.6000001E-02   -3.7845773E-12
  2.6035000E-02    2.0434824E-12
  2.6070001E-02    4.3576197E-12
  2.6105000E-02   -1.5810972E-12
  2.6140001E-02   -5.1568172E-12
  2.6175000E-02    6.7131673E-13
  2.6210001E-02    5.9481925E-12
  2.6245000E-02    8.1457530E-13
  2.6280001E-02   -6.3970517E-12
  2.6315000E-02   -2.8308029E-12
  2.6350001E-02    6.1486233E-12
  2.6385000E-02    5.1264960E-12
  2.6419999E-02   -4.9409556E-12
  2.6455000E-02   -7.2786195E-12
  2.6489999E-02    2.7080573E-12
  2.6525000E-02    8.7893477E-12
  2.6559999E-02    3.7496544E-13
  2.6595000E-02   -9.1997703E-12
  2.6629999E-02   -3.8995222E-12
  2.6665000E-02    8.1938172E-12
  2.6699999E-02    7.2598694E-12
  2.6735000E-02   -5.7121794E-12
  2.6769999E-02   -9.7539624E-12
  2.6805000E-02    2.0381236E-12
  2.6839999E-02    1.0758632E-11
  2.6875000E-02    2.2186801E-12
  2.6910000E-02   -9.9014217E-12
  2.6945001E-02   -6.2334621E-12
  2.6980000E-02    7.1652571E-12