 -4.8000002E-03    1.0000000E-24
 -4.7650002E-03    1.0000001E-24
 -4.7300002E-03    1.0000002E-24
 -4.6950001E-03    1.0000002E-24
 -4.6600001E-03    1.0000001E-24
 -4.6250001E-03    1.0000001E-24
 -4.5900000E-03    1.0000001E-24
 -4.5550000E-03    1.0000001E-24
 -4.5200000E-03    1.0000003E-24
 -4.4849999E-03    1.0000003E-24
 -4.4499999E-03    9.9999992E-25
 -4.4149999E-03    9.9999982E-25
 -4.3799998E-03    9.9999992E-25
 -4.3449998E-03    1.0000004E-24
 -4.3100002E-03    1.0000005E-24
 -4.2750002E-03    1.0000002E-24
 -4.2400002E-03    9.9999982E-25
 -4.2050001E-03    9.9999982E-25
 -4.1700001E-03    1.0000002E-24
 -4.1350001E-03    1.0000001E-24
 -4.1000000E-03    1.0000000E-24
 -4.0650000E-03    1.0000002E-24
 -4.0300000E-03    1.0000005E-24
 -3.9949999E-03    1.0000001E-24
 -3.9599999E-03    9.9999963E-25
 -3.9249999E-03    9.9999972E-25
 -3.8900001E-03    1.0000001E-24
 -3.8550000E-03    1.0000003E-24
 -3.8200000E-03    1.0000001E-24
 -3.7849999E-03    9.9999982E-25
 -3.7499999E-03    1.0000001E-24
 -3.7150001E-03    1.0000006E-24
 -3.6800001E-03    1.0000005E-24
 -3.6450000E-03    1.0000001E-24
 -3.6100000E-03    1.0000006E-24
 -3.5750000E-03    9.9999982E-25
 -3.5399999E-03    9.9999755E-25
 -3.5049999E-03    9.9999450E-25
 -3.4700001E-03    1.0000030E-24
 -3.4350001E-03    9.9997113E-25
 -3.4000000E-03    1.0000003E-24
 -3.3650000E-03    1.0001411E-24
 -3.3300000E-03    9.9996748E-25
 -3.2949999E-03    1.0000844E-24
 -3.2599999E-03    1.0004160E-24
 -3.2250001E-03    1.0000112E-24
 -3.1900001E-03    9.9871960E-25
 -3.1550000E-03    1.0061705E-24
 -3.1200000E-03    1.0103616E-24
 -3.0850000E-03    9.8985103E-25
 -3.0499999E-03    9.6810006E-25
 -3.0149999E-03    1.0305659E-24
 -2.9800001E-03    1.0037728E-24
 -2.9450001E-03    8.5493609E-25
 -2.9100000E-03    1.1915555E-24
 -2.8750000E-03    1.2771158E-24
 -2.8400000E-03    8.0362039E-25
 -2.8049999E-03    3.4848735E-26
 -2.7699999E-03    2.1469333E-24
 -2.7350001E-03    4.6692894E-24
 -2.7000001E-03   -1.5116450E-24
 -2.6650000E-03   -5.2930338E-24
 -2.6300000E-03    1.9047751E-24
 -2.5950000E-03    9.5049874E-24
 -2.5599999E-03   -6.0636314E-24
 -2.5249999E-03   -1.0437104E-23
 -2.4900001E-03    1.2387869E-23
 -2.4550001E-03    6.7322942E-23
 -2.4200000E-03    3.4932638E-23
 -2.3850000E-03   -1.2025887E-22
 -2.3500000E-03    4.1530359E-23
 -2.3149999E-03    2.4964590E-22
 -2.2799999E-03    1.1096684E-22
 -2.2450001E-03   -3.7194903E-22
 -2.2100001E-03   -8.0734537E-23
 -2.1750000E-03    9.6638929E-22
 -2.1400000E-03   -3.6658196E-23
 -2.1050000E-03   -2.2408981E-21
 -2.0699999E-03   -8.0962054E-22
 -2.0349999E-03    3.0885704E-21
 -2.0000001E-03    1.3499199E-21
 -1.9650001E-03   -2.8634472E-21
 -1.9300000E-03   -4.9781127E-22
 -1.8950000E-03    1.3087336E-21
 -1.8600000E-03   -4.9752123E-21
 -1.8250000E-03   -9.4731325E-21
 -1.7900000E-03    1.3514719E-21
 -1.7550000E-03    1.2261082E-20
 -1.7199999E-03    5.3725777E-21
 -1.6850000E-03   -1.4067846E-20
 -1.6500000E-03   -2.2173376E-20
 -1.6150000E-03    8.8429897E-21
 -1.5800000E-03    4.5481641E-20
 -1.5450000E-03    1.7762708E-23
 -1.5100000E-03   -7.9695298E-20
 -1.4750001E-03   -1.8903870E-20
 -1.4400000E-03    1.1250393E-19
 -1.4050000E-03    6.8266945E-20
 -1.3700000E-03   -1.0790725E-19
 -1.3350000E-03   -8.8996866E-20
 -1.3000000E-03    1.6762314E-19
 -1.2650000E-03    1.8008477E-19
 -1.2300001E-03   -2.7785974E-19
 -1.1950000E-03   -4.2844158E-19
 -1.1600000E-03    2.0772449E-19
 -1.1250000E-03    6.9051099E-19
 -1.0900000E-03    1.7352223E-19
 -1.0550000E-03   -7.2225797E-19
 -1.0200000E-03   -5.6701463E-19
 -9.8500005E-04    9.0295387E-19
 -9.5000002E-04    1.1374300E-18
 -9.1499998E-04   -1.1537462E-18
 -8.8000001E-04   -2.2365082E-18
 -8.4499997E-04    1.0199078E-18
 -8.1000000E-04    3.8408122E-18
 -7.7500002E-04    1.8130743E-19
 -7.3999999E-04   -5.9002590E-18
 -7.0500001E-04   -3.6578559E-18
 -6.6999998E-04    7.0799530E-18
 -6.3500000E-04    8.6957006E-18
 -6.0000003E-04   -5.2097837E-18
 -5.6499999E-04   -1.3932339E-17
 -5.3000002E-04    8.2337615E-19
 -4.9499999E-04    2.0511088E-17
 -4.6000001E-04    8.2119919E-18
 -4.2500001E-04   -2.6133178E-17
 -3.9000000E-04   -2.3744772E-17
 -3.5500000E-04    2.6779949E-17
 -3.1999999E-04    4.8793561E-17
 -2.8499999E-04   -1.4214419E-17
 -2.5000001E-04   -7.9184630E-17
 -2.1499999E-04   -1.7539409E-17
 -1.8000000E-04    1.0847230E-16
 -1.4500000E-04    8.1729236E-17
 -1.1000000E-04   -1.1509380E-16
 -7.5000004E-05   -1.7167333E-16
 -3.9999999E-05    8.4910633E-17
 -4.9999999E-06    2.8568730E-16
  2.9999999E-05    1.0371057E-17
  6.5000000E-05   -4.0558272E-16
  9.9999997E-05   -1.9768255E-16
  1.3499999E-04    4.8084213E-16
  1.7000000E-04    4.9115512E-16
  2.0500000E-04   -4.4815396E-16
  2.3999999E-04   -8.9040739E-16
  2.7500000E-04    1.9533193E-16
  3.1000000E-04    1.3039455E-15
  3.4500001E-04    3.4646800E-16
  3.8000001E-04   -1.5838059E-15
  4.1499999E-04   -1.1850935E-15
  4.4999999E-04    1.5785545E-15
  4.8500000E-04    2.3221055E-15
  5.2000000E-04   -1.0130397E-15
  5.5499998E-04   -3.5281377E-15
  5.9000001E-04   -2.7204644E-16
  6.2499999E-04    4.5280751E-15
  6.6000002E-04    2.3928818E-15
  6.9500000E-04   -4.8018315E-15
  7.3000003E-04   -5.2168166E-15
  7.6500000E-04    3.8380422E-15
  7.9999998E-04    8.4114658E-15
  8.3500001E-04   -1.0273132E-15
  8.6999999E-04   -1.1155881E-14
  9.0500002E-04   -3.8958408E-15
  9.4000000E-04    1.2348777E-14
  9.7499997E-04    1.0743270E-14
  1.0100000E-03   -1.0653338E-14
  1.0450000E-03   -1.8647751E-14
  1.0800000E-03    4.9022752E-15
  1.1150000E-03    2.6078037E-14
  1.1500000E-03    5.7555503E-15
  1.1849999E-03   -3.0569155E-14
  1.2200000E-03   -2.1142852E-14
  1.2550000E-03    2.9590466E-14
  1.2900000E-03    4.0307316E-14
  1.3250000E-03   -1.9771541E-14
  1.3600000E-03   -5.9960737E-14
  1.3950000E-03   -7.8508138E-16
  1.4299999E-03    7.6038866E-14
  1.4650000E-03    3.3431093E-14
  1.5000000E-03   -8.1853476E-14
  1.5350000E-03   -7.5773934E-14
  1.5700000E-03    7.1567921E-14
  1.6050000E-03    1.2329286E-13
  1.6400000E-03   -3.9685526E-14
  1.6749999E-03   -1.6807439E-13
  1.7100000E-03   -1.6343275E-14
  1.7450000E-03    2.0099126E-13
  1.7800000E-03    9.6833850E-14
  1.8150000E-03   -2.1070347E-13
  1.8500000E-03   -1.9889805E-13
  1.8850000E-03    1.8244335E-13
  1.9200000E-03    3.1156905E-13
  1.9550000E-03   -1.0292767E-13
  1.9900000E-03   -4.1468711E-13
  2.0250001E-03   -3.3264210E-14
  2.0600001E-03    4.8369040E-13
  2.0949999E-03    2.2208463E-13
  2.1299999E-03   -4.9384796E-13
  2.1650000E-03   -4.5249197E-13
  2.2000000E-03    4.1981148E-13
  2.2350000E-03    7.0789734E-13
  2.2700001E-03   -2.2529778E-13
  2.3050001E-03   -9.4386337E-13
  2.3399999E-03   -1.1792822E-13
  2.3749999E-03    1.0809462E-12
  2.4100000E-03    5.9821532E-13
  2.4450000E-03   -1.0275092E-12
  2.4800000E-03   -1.1487761E-12
  2.5150001E-03    7.1577640E-13
  2.5500001E-03    1.6654870E-12
  2.5849999E-03   -1.1506791E-13
  2.6199999E-03   -2.0252589E-12
  2.6550000E-03   -7.8662614E-13
  2.6900000E-03    2.0388615E-12
  2.7250000E-03    1.9075273E-12
  2.7600001E-03   -1.4765148E-12
  2.7950001E-03   -2.9727325E-12
  2.8299999E-03    2.3673462E-13
  2.8649999E-03    3.5882369E-12
  2.9000000E-03    1.5472703E-12
  2.9350000E-03   -3.4106522E-12
  2.9700000E-03   -3.5680350E-12
  3.0050001E-03    2.2071147E-12
  3.0400001E-03    5.3998897E-12
  3.0749999E-03    1.6103983E-13
  3.1099999E-03   -6.4136014E-12
  3.1450000E-03   -3.5550232E-12
  3.1800000E-03    5.8446195E-12
  3.2150000E-03    7.3074966E-12
  3.2500001E-03   -3.1747957E-12
  3.2850001E-03   -1.0254977E-11
  3.3199999E-03   -1.3594939E-12
  3.3549999E-03    1.1413506E-11
  3.3900000E-03    7.1322241E-12
  3.4250000E-03   -9.9191124E-12
  3.4600000E-03   -1.2987101E-11
  3.4950001E-03    5.3579446E-12
  3.5300001E-03    1.7364648E-11
  3.5649999E-03    1.8913621E-12
  3.5999999E-03   -1.8686972E-11
  3.6350000E-03   -1.0420189E-11
  3.6700000E-03    1.6210699E-11
  3.7050000E-03    1.8527678E-11
  3.7400001E-03   -9.9128874E-12
  3.7750001E-03   -2.4370183E-11
  3.8099999E-03    7.2751961E-13
  3.8449999E-03    2.6538880E-11
  3.8800000E-03    9.7261348E-12
  3.9149998E-03   -2.4196698E-11
  3.9499998E-03   -1.8677703E-11
  3.9849998E-03    1.9271943E-11
  4.0199999E-03    2.5893499E-11
  4.0549999E-03   -1.3055015E-11
  4.0899999E-03   -3.2517121E-11
  4.1250000E-03    4.5338386E-12
  4.1600000E-03    3.7802955E-11
  4.1950000E-03    6.9064537E-12
  4.2300001E-03   -3.9341030E-11
  4.2650001E-03   -1.8283711E-11
  4.3000001E-03    3.9519173E-11
  4.3350002E-03    3.1430733E-11
  4.3700002E-03   -3.7526510E-11
  4.4049998E-03   -4.8095604E-11
  4.4399998E-03    2.9933136E-11
  4.4749998E-03    6.8400320E-11
  4.5099999E-03   -8.9631818E-12
  4.5449999E-03   -8.1090711E-11
  4.5799999E-03   -2.0254253E-11
  4.6150000E-03    8.1870864E-11
  4.6500000E-03    5.1465752E-11
  4.6850001E-03   -7.1449062E-11
  4.7200001E-03   -8.3000419E-11
  4.7550001E-03    4.6170900E-11
  4.7900002E-03    1.0766281E-10
  4.8250002E-03   -5.8632361E-12
  4.8600002E-03   -1.1349795E-10
  4.8949998E-03   -3.5436130E-11
  4.9299998E-03    1.0564273E-10
  4.9649999E-03    7.6120492E-11
  4.9999999E-03   -8.3579803E-11
  5.0349999E-03   -1.1495644E-10
  5.0700000E-03    3.8546544E-11
  5.1050000E-03    1.3232357E-10
  5.1400000E-03    1.4718234E-11
  5.1750001E-03   -1.2484709E-10
  5.2100001E-03   -6.2947522E-11
  5.2450001E-03    9.4939528E-11
  5.2800002E-03    8.9569296E-11
  5.3150002E-03   -6.6861822E-11
  5.3500002E-03   -1.1396109E-10
  5.3849998E-03    2.6570326E-11
  5.4199998E-03    1.2548200E-10
  5.4549999E-03    2.6789600E-11
  5.4899999E-03   -1.0314035E-10
  5.5249999E-03   -6.2947078E-11
  5.5600000E-03    5.7798270E-11
  5.5950000E-03    5.4699516E-11
  5.6300000E-03   -4.4406531E-11
  5.6650001E-03   -6.1265985E-11
  5.7000001E-03    7.9086329E-12
  5.7350001E-03    2.2366982E-11
  5.7700002E-03   -1.7602104E-11
  5.8050002E-03    3.9413053E-13
  5.8400002E-03    3.9852562E-11
  5.8749998E-03   -1.7496306E-11
  5.9099998E-03   -9.3796075E-11
  5.9449999E-03   -2.8486343E-11
  5.9799999E-03    8.3182135E-11
  6.0149999E-03    2.7297099E-11
  6.0500000E-03   -1.1090197E-10
  6.0850000E-03   -7.5807152E-11
  6.1200000E-03    7.2988046E-11
  6.1550001E-03    5.4315604E-11
  6.1900001E-03   -1.1268611E-10
  6.2250001E-03   -1.4601094E-10
  6.2600002E-03   -1.5100985E-11
  6.2950002E-03    3.5581284E-11
  6.3299998E-03   -4.3689746E-11
  6.3649998E-03   -4.6547929E-11
  6.3999998E-03    6.0222785E-11
  6.4349999E-03    5.5726642E-11
  6.4699999E-03   -1.1677460E-10
  6.5049999E-03   -2.1494757E-10
  6.5400000E-03   -7.7718283E-11
  6.5750000E-03    1.1517971E-10
  6.6100000E-03    5.8935176E-11
  6.6450001E-03   -2.4031105E-10
  6.6800001E-03   -3.3752126E-10
  6.7150001E-03    4.1583265E-11
  6.7500002E-03    3.7259984E-10
  6.7850002E-03    1.5234166E-11
  6.8199998E-03   -5.9674393E-10
  6.8549998E-03   -4.7047305E-10
  6.8899998E-03    2.9337641E-10
  6.9249999E-03    5.1956922E-10
  6.9599999E-03   -1.9107223E-10
  6.9949999E-03   -7.4028994E-10
  7.0300000E-03   -2.5199079E-10
  7.0650000E-03    4.7165233E-10
  7.1000000E-03    2.6472022E-10
  7.1350001E-03   -5.0457682E-10
  7.1700001E-03   -6.5910322E-10
  7.2050001E-03   -7.5207778E-11
  7.2400002E-03    3.4460301E-10
  7.2750002E-03    3.8099312E-11
  7.3099998E-03   -5.3015758E-10
  7.3449998E-03   -5.0436855E-10
  7.3799998E-03    8.7796624E-11
  7.4149999E-03    3.0095887E-10
  7.4499999E-03   -1.5444311E-10
  7.4850000E-03   -4.4936374E-10
  7.5200000E-03   -1.3692868E-10
  7.5550000E-03    1.6358292E-10
  7.5900001E-03   -8.0406605E-11
  7.6250001E-03   -4.5080320E-10
  7.6600001E-03   -3.4305386E-10
  7.6950002E-03   -3.2956478E-11
  7.7300002E-03   -9.0980078E-11
  7.7650002E-03   -2.2878906E-10
  7.7999998E-03   -3.3610583E-11
  7.8349998E-03    6.2800133E-11
  7.8699999E-03   -1.6401046E-10
  7.9049999E-03   -1.9985699E-10
  7.9399999E-03   -1.3153582E-11
  7.9750000E-03   -9.5762107E-11
  8.0100000E-03   -3.3093026E-10
  8.0450000E-03   -2.0590953E-10
  8.0800001E-03    1.8962036E-10
  8.1150001E-03    2.3933697E-10
  8.1500001E-03   -1.3333472E-10
  8.1850002E-03   -2.5665045E-10
  8.2200002E-03   -3.7718832E-11
  8.2550002E-03   -9.2962103E-11
  8.2900003E-03   -2.2236030E-10
  8.3250003E-03    6.3113355E-11
  8.3600003E-03    1.8697643E-10
  8.3950004E-03   -1.3209044E-10
  8.4300004E-03   -1.2501565E-10
  8.4650004E-03    3.3560446E-10
  8.5000005E-03    5.8839178E-10
  8.5349996E-03    3.2721076E-10
  8.5699996E-03   -2.1443111E-10
  8.6049996E-03   -2.7631189E-10
  8.6399997E-03    3.3948760E-10
  8.6749997E-03    4.6592891E-10
  8.7099997E-03   -1.1251008E-10
  8.7449998E-03   -1.0641524E-10
  8.7799998E-03    3.5222672E-10
  8.8149998E-03    3.5577030E-10
  8.8499999E-03    4.3565757E-10
  8.8849999E-03    6.7612016E-10
  8.9199999E-03    3.2986511E-10
  8.9550000E-03    1.8431080E-11
  8.9900000E-03    3.1933156E-10
  9.0250000E-03    6.0420069E-10
  9.0600001E-03    7.5533962E-10
  9.0950001E-03    5.6195976E-10
  9.1300001E-03   -3.5280934E-10
  9.1650002E-03   -4.1715123E-10
  9.2000002E-03    1.0778207E-09
  9.2350002E-03    1.4907522E-09
  9.2700003E-03    4.9200935E-11
  9.3050003E-03   -5.9347066E-10
  9.3400003E-03    2.0770030E-10
  9.3750004E-03    9.5193831E-10
  9.4100004E-03    1.1795579E-09
  9.4450004E-03    5.6500499E-10
  9.4799995E-03   -2.1592486E-10
  9.5149996E-03    6.5617811E-10
  9.5499996E-03    1.6261257E-09
  9.5849996E-03    3.2064765E-10
  9.6199997E-03   -7.3905881E-10
  9.6549997E-03    2.2027211E-10
  9.6899997E-03    5.1236898E-10
  9.7249998E-03   -1.5534346E-10
  9.7599998E-03    8.9711613E-11
  9.7949998E-03    5.2137222E-10
  9.8299999E-03    6.5085659E-10
  9.8649999E-03    9.1447128E-10
  9.8999999E-03    4.5947293E-10
  9.9350000E-03   -4.8059466E-11
  9.9700000E-03    2.8999866E-10
  1.0005000E-02    8.8082756E-11
  1.0040000E-02   -4.3771608E-11
  1.0075000E-02    5.0671445E-10
  1.0110000E-02   -4.9490134E-10
  1.0145000E-02   -1.5535513E-09
  1.0180000E-02    1.6684609E-10
  1.0215000E-02    1.3297836E-09
  1.0250000E-02   -5.9922495E-10
  1.0285000E-02   -1.4787819E-09
  1.0320000E-02   -3.1370544E-12
  1.0355000E-02    6.0756983E-10
  1.0390000E-02    1.9142370E-10
  1.0425000E-02   -3.2037289E-10
  1.0460000E-02   -7.2147738E-10
  1.0495000E-02   -3.6546455E-10
  1.0530000E-02   -3.3738501E-10
  1.0565000E-02   -4.7397319E-10
  1.0600000E-02    3.3793010E-10
  1.0635000E-02    4.2771472E-10
  1.0670000E-02   -8.3236867E-10
  1.0705000E-02   -6.9132672E-10
  1.0740000E-02   -1.1885926E-10
  1.0775000E-02   -1.5744409E-09
  1.0810000E-02   -1.7087679E-09
  1.0845000E-02   -1.3067605E-10
  1.0880000E-02   -1.0346496E-09
  1.0915000E-02   -1.1005353E-09
  1.0950000E-02    7.5224021E-10
  1.0985000E-02    1.3376424E-10
  1.1020000E-02   -2.7635541E-09
  1.1055000E-02   -2.6391846E-09
  1.1090000E-02    1.1883581E-09
  1.1125000E-02    3.5782322E-09
  1.1160000E-02    5.6618371E-10
  1.1195000E-02   -3.6879049E-09
  1.1230000E-02   -2.1822810E-09
  1.1265000E-02    1.8117199E-09
  1.1300000E-02    8.9197888E-10
  1.1335000E-02   -2.9105325E-09
  1.1370000E-02   -2.9346474E-09
  1.1405000E-02    7.9616164E-10
  1.1440000E-02    2.6862528E-09
  1.1475000E-02    1.5781263E-11
  1.1510000E-02   -3.8757566E-09
  1.1545000E-02   -3.4240029E-09
  1.1580000E-02    2.8397182E-09
  1.1615000E-02    6.5441221E-09
  1.1650000E-02    2.3947092E-10
  1.1685000E-02   -6.9698483E-09
  1.1720000E-02   -3.6462218E-09
  1.1755000E-02    4.0904613E-09
  1.1790000E-02    5.8457084E-09
  1.1825000E-02    3.1377561E-09
  1.1860000E-02   -3.3784693E-09
  1.1895000E-02   -8.4820115E-09
  1.1930000E-02   -2.7685256E-09
  1.1965000E-02    5.6561080E-09
  1.2000000E-02    3.9311310E-09
  1.2035000E-02   -2.7046868E-10
  1.2070000E-02    2.2021922E-11
  1.2105000E-02   -1.2360788E-09
  1.2140000E-02   -5.9501942E-10
  1.2175000E-02    3.0200267E-09
  1.2210000E-02    8.4288898E-10
  1.2245000E-02   -3.1933478E-09
  1.2280000E-02   -1.0474426E-09
  1.2315000E-02    1.9181086E-09
  1.2350000E-02    3.5561796E-09
  1.2385000E-02    4.1273762E-09
  1.2420000E-02   -2.2899023E-10
  1.2455000E-02   -3.8458441E-09
  1.2490000E-02   -4.7154403E-10
  1.2525000E-02    1.6217970E-09
  1.2560000E-02   -5.0577020E-10
  1.2595000E-02    2.0653144E-10
  1.2630000E-02    8.5605617E-10
  1.2665000E-02   -2.6308822E-09
  1.2700000E-02   -2.6148854E-09
  1.2735000E-02    8.2133467E-10
  1.2770000E-02    3.3333588E-12
  1.2805000E-02    8.4166930E-11
  1.2840000E-02    5.4148090E-09
  1.2875000E-02    5.0708722E-09
  1.2910000E-02   -2.2339972E-09
  1.2945000E-02   -5.6355853E-09
  1.2980000E-02   -3.5328762E-09
  1.3015000E-02    5.7839583E-10
  1.3050000E-02    4.1652233E-09
  1.3085000E-02    7.8570400E-10
  1.3120000E-02   -5.8914207E-09
  1.3155000E-02   -3.2436072E-09
  1.3190000E-02    2.8252805E-09
  1.3225000E-02    1.9495114E-09
  1.3260000E-02   -3.3385850E-10
  1.3295000E-02    1.2104097E-09
  1.3330000E-02    2.4071563E-09
  1.3365000E-02    6.6840755E-10
  1.3400000E-02   -4.8926768E-10
  1.3435000E-02    3.6340334E-10
  1.3470000E-02    2.2348325E-09
  1.3505000E-02   -1.5583582E-10
  1.3540000E-02   -6.4437673E-09
  1.3575000E-02   -5.1355498E-09
  1.3610000E-02    2.4193572E-09
  1.3645000E-02    5.8656671E-09
  1.3680000E-02    4.7840261E-09
  1.3715000E-02    1.1462561E-09
  1.3750000E-02   -5.0150866E-09
  1.3785000E-02   -2.8859910E-09
  1.3820000E-02    7.1524391E-09
  1.3855000E-02    7.1592643E-09
  1.3890000E-02   -3.5163190E-09
  1.3925000E-02   -6.6340871E-09
  1.3960000E-02    1.2978054E-09
  1.3995000E-02    8.3982972E-09
  1.4030000E-02    6.2444943E-09
  1.4065000E-02   -1.2374797E-09
  1.4100000E-02   -5.6829692E-09
  1.4135000E-02   -3.9399199E-09
  1.4170000E-02    1.7229941E-11
  1.4205000E-02    2.9935958E-09
  1.4240000E-02    3.9091050E-09
  1.4275000E-02    2.7016134E-09
  1.4310000E-02    9.4173891E-10
  1.4345000E-02    9.7997810E-10
  1.4380000E-02    2.3455560E-09
  1.4415000E-02    1.2375049E-09
  1.4450000E-02   -1.7117006E-09
  1.4485000E-02   -1.0833761E-09
  1.4520000E-02    1.1712403E-09
  1.4555000E-02    1.9028358E-10
  1.4590000E-02    9.4137775E-10
  1.4625000E-02    3.5486813E-09
  1.4660000E-02    2.2612720E-10
  1.4695000E-02   -4.5934478E-09
  1.4730000E-02   -3.8776693E-09
  1.4765000E-02   -1.6635341E-09
  1.4800000E-02    2.0645994E-09
  1.4835000E-02    6.4153349E-09
  1.4870000E-02    2.0852817E-09
  1.4905000E-02   -4.5126214E-09
  1.4940000E-02   -5.2241050E-10
  1.4975000E-02    2.6425806E-09
  1.5010000E-02   -3.8502632E-09
  1.5045000E-02   -5.5530482E-09
  1.5080000E-02    1.6188205E-10
  1.5115000E-02    4.9392401E-10
  1.5150000E-02   -2.2148885E-09
  1.5185000E-02   -2.5585273E-10
  1.5220000E-02   -3.3561895E-10
  1.5255000E-02   -5.7440106E-09
  1.5290000E-02   -6.4447208E-09
  1.5325000E-02   -6.9164774E-10
  1.5360000E-02    7.2587319E-10
  1.5395000E-02   -3.2436447E-09
  1.5430000E-02   -3.0098088E-09
  1.5465000E-02    1.0454091E-09
  1.5500000E-02    8.8943924E-10
  1.5535000E-02   -3.1491312E-09
  1.5570000E-02   -5.3338480E-09
  1.5605000E-02   -3.7110308E-09
  1.5640000E-02   -1.0892576E-09
  1.5675001E-02   -1.0590457E-09
  1.5710000E-02   -1.8254385E-09
  1.5745001E-02   -1.0484786E-09
  1.5780000E-02   -3.3328402E-09
  1.5814999E-02   -8.1228642E-09
  1.5850000E-02   -6.0436176E-09
  1.5884999E-02    1.2957670E-09
  1.5920000E-02    3.3234138E-09
  1.5954999E-02    6.6384226E-10
  1.5990000E-02   -1.4669517E-09
  1.6024999E-02   -4.5986752E-09
  1.6060000E-02   -6.7820456E-09
  1.6094999E-02   -2.3524740E-09
  1.6130000E-02    4.3277857E-09
  1.6164999E-02    4.0192187E-09
  1.6200000E-02   -1.8581203E-09
  1.6235000E-02   -4.6002224E-09
  1.6270000E-02   -1.5240692E-09
  1.6305000E-02    2.9784184E-09
  1.6340001E-02    4.1355936E-09
  1.6375000E-02    6.6301908E-10
  1.6410001E-02   -3.2824410E-09
  1.6445000E-02   -2.3352347E-09
  1.6480001E-02    1.6495311E-09
  1.6515000E-02    3.2152534E-09
  1.6550001E-02    2.5190363E-09
  1.6585000E-02    1.9293069E-09
  1.6620001E-02    1.1569942E-09
  1.6655000E-02    5.7179805E-10
  1.6690001E-02    8.8048202E-10
  1.6725000E-02    1.0028389E-09
  1.6759999E-02    8.0553025E-10
  1.6795000E-02    1.2349016E-09
  1.6829999E-02    1.9256756E-09
  1.6865000E-02    1.6357992E-09
  1.6899999E-02   -1.3797305E-10
  1.6935000E-02   -1.5603492E-09
  1.6969999E-02   -1.2527716E-10
  1.7005000E-02    3.2256093E-09
  1.7039999E-02    5.3545484E-09
  1.7075000E-02    4.4194142E-09
  1.7109999E-02    1.4845611E-09
  1.7145000E-02    8.8613494E-10
  1.7180000E-02    2.8866647E-09
  1.7215000E-02    1.2915033E-09
  1.7250000E-02   -2.3187610E-09
  1.7285001E-02   -8.3748269E-10
  1.7320000E-02    6.3808642E-10
  1.7355001E-02   -2.0584567E-09
  1.7390000E-02    6.4858169E-10
  1.7425001E-02    6.8934960E-09
  1.7460000E-02    3.1130816E-09
  1.7495001E-02   -4.8234567E-09
  1.7530000E-02   -3.6089951E-09
  1.7565001E-02    1.8194434E-09
  1.7600000E-02    3.9549182E-09
  1.7635001E-02    3.6664503E-09
  1.7670000E-02    1.1137811E-09
  1.7704999E-02   -9.9699238E-10
  1.7740000E-02    2.7817828E-11
  1.7774999E-02   -4.1627041E-10
  1.7810000E-02   -2.2633497E-09
  1.7844999E-02   -2.9826790E-12
  1.7880000E-02    2.7872555E-09
  1.7914999E-02    9.7032016E-10
  1.7950000E-02   -1.6731371E-09
  1.7984999E-02   -1.8888500E-09
  1.8020000E-02   -1.3155045E-09
  1.8054999E-02   -1.0709035E-09
  1.8090000E-02   -2.4764785E-10
  1.8124999E-02    1.9360975E-09
  1.8160000E-02    3.1402920E-09
  1.8195000E-02    1.4749616E-09
  1.8230001E-02   -2.2872655E-10
  1.8265000E-02   -7.7784046E-10
  1.8300001E-02   -1.4120066E-09
  1.8335000E-02   -1.2500777E-09
  1.8370001E-02   -1.4940734E-09
  1.8405000E-02   -1.8300966E-09
  1.8440001E-02    1.3157431E-09
  1.8475000E-02    2.2840818E-09
  1.8510001E-02   -2.0992701E-09
  1.8545000E-02   -3.0476027E-10
  1.8580001E-02    5.6401923E-09
  1.8615000E-02    1.6459714E-09
  1.8650001E-02   -4.5443396E-09
  1.8685000E-02   -3.4221905E-09
  1.8719999E-02   -3.7024857E-09
  1.8755000E-02   -3.5464389E-09
  1.8789999E-02    2.4560527E-09
  1.8825000E-02    3.1823488E-09
  1.8859999E-02   -1.0446882E-09
  1.8895000E-02    9.0647467E-10
  1.8929999E-02    2.3548345E-09
  1.8965000E-02   -2.1088871E-09
  1.8999999E-02   -3.9889443E-09
  1.9035000E-02   -2.6815419E-09
  1.9069999E-02   -1.3665471E-09
  1.9105000E-02    9.8807074E-10
  1.9140000E-02    9.7909358E-10
  1.9175000E-02   -5.2323205E-11
  1.9210000E-02    3.0663321E-09
  1.9245001E-02    2.8763134E-09
  1.9280000E-02   -4.5144235E-09
  1.9315001E-02   -6.6343042E-09
  1.9350000E-02   -2.2523190E-11
  1.9385001E-02    3.8005412E-09
  1.9420000E-02    9.9094588E-10
  1.9455001E-02   -2.7592171E-09
  1.9490000E-02   -4.0442867E-09
  1.9525001E-02   -1.7977305E-09
  1.9560000E-02    2.8037663E-09
  1.9595001E-02    3.7744958E-09
  1.9630000E-02   -1.2425676E-09
  1.9664999E-02   -5.0383315E-09
  1.9700000E-02   -3.8081436E-09
  1.9734999E-02   -2.3768161E-09
  1.9770000E-02   -7.8611956E-10
  1.9804999E-02    2.6507949E-09
  1.9840000E-02    2.0263475E-09
  1.9874999E-02   -1.8194585E-09
  1.9910000E-02   -6.6991268E-10
  1.9944999E-02    1.8113153E-09
  1.9980000E-02    7.5071893E-12
  2.0014999E-02   -4.2660014E-10
  2.0050000E-02    1.1401038E-09
  2.0085000E-02   -3.5625050E-10
  2.0120000E-02   -1.4633245E-09
  2.0155000E-02    7.1544221E-10
  2.0190001E-02    2.4900964E-09
  2.0225000E-02    2.9134990E-09
  2.0260001E-02    2.0275870E-09
  2.0295000E-02   -6.0524430E-10
  2.0330001E-02   -1.4619712E-09
  2.0365000E-02    5.1248408E-11
  2.0400001E-02    1.2959030E-10
  2.0435000E-02    3.3742223E-10
  2.0470001E-02    2.8384635E-09
  2.0505000E-02    2.9338110E-09
  2.0540001E-02    2.6840094E-10
  2.0575000E-02    1.7070301E-09
  2.0609999E-02    4.8846518E-09
  2.0645000E-02    1.0805256E-09
  2.0679999E-02   -4.2804174E-09
  2.0715000E-02   -9.8018571E-10
  2.0749999E-02    4.3968718E-09
  2.0785000E-02    2.9959690E-09
  2.0819999E-02    2.2748105E-10
  2.0855000E-02    3.9353507E-10
  2.0889999E-02    8.2036150E-10
  2.0925000E-02    1.8274267E-09
  2.0959999E-02    2.4718272E-09
  2.0995000E-02    5.6562044E-10
  2.1029999E-02   -2.1508699E-10
  2.1065000E-02    1.0774510E-09
  2.1100000E-02    1.4728884E-09
  2.1135001E-02    3.4247940E-09
  2.1170000E-02    5.6699467E-09
  2.1205001E-02    1.5185224E-09
  2.1240000E-02   -3.8972026E-09
  2.1275001E-02   -1.3811648E-09
  2.1310000E-02    3.7482977E-09
  2.1345001E-02    3.2787171E-09
  2.1380000E-02   -5.4184129E-10
  2.1415001E-02   -2.7911315E-09
  2.1450000E-02   -1.3208035E-09
  2.1485001E-02    2.7986033E-09
  2.1520000E-02    3.6306591E-09
  2.1555001E-02   -1.3508079E-09
  2.1590000E-02   -4.5752659E-09
  2.1624999E-02   -1.2538552E-09
  2.1660000E-02    1.6506279E-09
  2.1694999E-02   -2.6219912E-10
  2.1730000E-02   -1.4820795E-09
  2.1764999E-02   -2.3565033E-10
  2.1800000E-02   -2.5106839E-10
  2.1834999E-02   -3.1750463E-11
  2.1870000E-02    1.3849312E-09
  2.1904999E-02   -6.7476447E-10
  2.1940000E-02   -4.4285344E-09
  2.1974999E-02   -2.9811684E-09
  2.2010000E-02    1.0006488E-09
  2.2045000E-02    2.9825512E-10
  2.2080000E-02   -3.5633236E-09
  2.2115000E-02   -4.0017487E-09
  2.2150001E-02    5.6030647E-10
  2.2185000E-02    4.7182698E-09
  2.2220001E-02    2.4105071E-09
  2.2255000E-02   -4.5885269E-09
  2.2290001E-02   -8.1587626E-09
  2.2325000E-02   -5.1298175E-09
  2.2360001E-02   -7.0811518E-10
  2.2395000E-02    9.3007257E-10
  2.2430001E-02    1.4104464E-09
  2.2465000E-02    9.0451224E-10
  2.2500001E-02   -2.9526614E-09
  2.2535000E-02   -6.2780425E-09
  2.2569999E-02   -3.1149678E-09
  2.2605000E-02    2.8931082E-09
  2.2639999E-02    4.7272000E-09
  2.2675000E-02    2.0477720E-09
  2.2709999E-02   -2.5487765E-09
  2.2745000E-02   -5.4587721E-09
  2.2779999E-02   -2.3791684E-09
  2.2815000E-02    3.8073100E-09
  2.2849999E-02    4.7506763E-09
  2.2885000E-02   -1.0189574E-09
  2.2919999E-02   -6.3596377E-09
  2.2955000E-02   -4.2512802E-09
  2.2990000E-02    3.1911176E-09
  2.3025000E-02    5.4734168E-09
  2.3060000E-02    3.0285383E-10
  2.3095001E-02   -2.0388371E-09
  2.3130000E-02    3.2281100E-10
  2.3165001E-02   -6.0771338E-10
  2.3200000E-02   -1.8198678E-09
  2.3235001E-02    2.1680233E-09
  2.3270000E-02    3.2423353E-09
  2.3305001E-02   -6.9185629E-10
  2.3340000E-02    2.4121397E-10
  2.3375001E-02    2.1114204E-09
  2.3410000E-02   -3.4987906E-09
  2.3445001E-02   -4.4896491E-09
  2.3480000E-02    5.6359251E-09
  2.3514999E-02    8.7334362E-09
  2.3550000E-02   -6.8238393E-10
  2.3584999E-02   -4.9408277E-09
  2.3620000E-02   -1.9131237E-10
  2.3654999E-02    2.2411013E-09
  2.3690000E-02    1.7213427E-09
  2.3724999E-02    2.1334405E-09
  2.3760000E-02    8.7259461E-10
  2.3794999E-02   -1.6345855E-09
  2.3830000E-02   -1.6166423E-09
  2.3864999E-02    5.3904470E-10
  2.3900000E-02    2.9280671E-09
  2.3934999E-02    3.4600396E-09
  2.3970000E-02    1.2858273E-10
  2.4005000E-02   -3.0402521E-09
  2.4040001E-02   -7.2986550E-10
  2.4075000E-02    2.8455940E-09
  2.4110001E-02    2.0876485E-09
  2.4145000E-02    6.5070355E-10
  2.4180001E-02    8.1902507E-10
  2.4215000E-02   -9.7962627E-10
  2.4250001E-02   -1.6753328E-09
  2.4285000E-02    2.2446833E-09
  2.4320001E-02    3.2674390E-09
  2.4355000E-02    2.7593136E-10
  2.4390001E-02    1.8073248E-09
  2.4425000E-02    2.1479860E-09
  2.4460001E-02   -5.1387938E-09
  2.4495000E-02   -5.5251759E-09
  2.4529999E-02    3.6144518E-09
  2.4565000E-02    2.9730340E-09
  2.4599999E-02   -4.7857664E-09
  2.4635000E-02   -2.2392677E-09
  2.4669999E-02    3.2880090E-09
  2.4705000E-02    1.1820227E-09
  2.4739999E-02   -6.8731704E-10
  2.4775000E-02   -7.7677045E-11
  2.4809999E-02   -1.1286252E-09
  2.4845000E-02   -8.2091289E-10
  2.4879999E-02   -5.3279336E-10
  2.4915000E-02   -2.4247016E-09
  2.4950000E-02    6.0574865E-11
  2.4985000E-02    4.7861985E-09
  2.5020000E-02    2.6530393E-09
  2.5055001E-02   -2.0030444E-09
  2.5090000E-02   -2.6868825E-09
  2.5125001E-02   -2.3321438E-09
  2.5160000E-02   -6.2086331E-10
  2.5195001E-02    3.1839982E-09
  2.5230000E-02    2.3731526E-09
  2.5265001E-02   -3.0272438E-09
  2.5300000E-02   -3.7369605E-09
  2.5335001E-02    5.5882132E-10
  2.5370000E-02    1.4137908E-09
  2.5405001E-02   -1.2587049E-09
  2.5440000E-02   -8.0217832E-10
  2.5474999E-02    1.2587429E-09
  2.5510000E-02   -2.2225308E-10
  2.5544999E-02   -1.6176681E-09
  2.5580000E-02    9.5235625E-11
  2.5614999E-02   -1.2952577E-10
  2.5650000E-02   -2.6114346E-09
  2.5684999E-02   -2.6967204E-09
  2.5720000E-02   -1.0242807E-09
  2.5754999E-02    1.4909562E-09
  2.5790000E-02    4.1641282E-09
  2.5824999E-02    2.1007949E-09
  2.5860000E-02   -2.9486402E-09
  2.5895000E-02   -3.8243759E-09
  2.5930000E-02   -2.3543827E-09
  2.5965000E-02   -1.5360481E-09
  2.6000001E-02    1.0282974E-09
  2.6035000E-02    2.3971878E-09
  2.6070001E-02   -4.9900806E-11
  2.6105000E-02   -1.2189135E-09
  2.6140001E-02   -2.9471836E-10
  2.6175000E-02   -3.6241818E-10
  2.6210001E-02    1.2702776E-10
  2.6245000E-02    5.6496785E-10
  2.6280001E-02   -1.2304462E-09
  2.6315000E-02   -1.7358375E-09
  2.6350001E-02   -1.2955641E-10
  2.6385000E-02   -6.8855821E-10
  2.6419999E-02   -1.7363638E-09
  2.6455000E-02    4.6753151E-10
  2.6489999E-02    2.1251276E-09
  2.6525000E-02    9.5532061E-11
  2.6559999E-02   -1.3365471E-09
  2.6595000E-02   -3.1769193E-10
  2.6629999E-02   -5.4422866E-10
  2.6665000E-02   -1.2163015E-09
  2.6699999E-02    8.0700618E-10
  2.6735000E-02    1.6720114E-09
  2.6769999E-02   -1.2366713E-09
  2.6805000E-02   -1.9993827E-09
  2.6839999E-02    1.7052174E-09
  2.6875000E-02    3.9062691E-09
  2.6910000E-02    1.5658242E-09
  2.6945001E-02   -1.5451705E-09
  2.6980000E-02   -1.1145244E-09