 -4.8000002E-03    1.0000000E-24
 -4.7650002E-03    1.0000002E-24
 -4.7300002E-03    1.0000001E-24
 -4.6950001E-03    1.0000000E-24
 -4.6600001E-03    1.0000002E-24
 -4.6250001E-03    1.0000001E-24
 -4.5900000E-03    1.0000000E-24
 -4.5550000E-03    1.0000003E-24
 -4.5200000E-03    1.0000002E-24
 -4.4849999E-03    9.9999963E-25
 -4.4499999E-03    1.0000001E-24
 -4.4149999E-03    1.0000005E-24
 -4.3799998E-03    1.0000000E-24
 -4.3449998E-03    9.9999972E-25
 -4.3100002E-03    1.0000003E-24
 -4.2750002E-03    1.0000003E-24
 -4.2400002E-03    1.0000003E-24
 -4.2050001E-03    1.0000003E-24
 -4.1700001E-03    9.9999982E-25
 -4.1350001E-03    9.9999992E-25
 -4.1000000E-03    1.0000004E-24
 -4.0650000E-03    9.9999982E-25
 -4.0300000E-03    9.9999953E-25
 -3.9949999E-03    1.0000002E-24
 -3.9599999E-03    1.0000003E-24
 -3.9249999E-03    9.9999982E-25
 -3.8900001E-03    1.0000003E-24
 -3.8550000E-03    1.0000006E-24
 -3.8200000E-03    9.9999972E-25
 -3.7849999E-03    9.9999963E-25
 -3.7499999E-03    1.0000005E-24
 -3.7150001E-03    1.0000003E-24
 -3.6800001E-03    9.9999953E-25
 -3.6450000E-03    1.0000001E-24
 -3.6100000E-03    1.0000008E-24
 -3.5750000E-03    1.0000000E-24
 -3.5399999E-03    9.9999923E-25
 -3.5049999E-03    9.9999982E-25
 -3.4700001E-03    1.0000007E-24
 -3.4350001E-03    1.0000003E-24
 -3.4000000E-03    1.0000001E-24
 -3.3650000E-03    9.9999992E-25
 -3.3300000E-03    9.9999972E-25
 -3.2949999E-03    1.0000001E-24
 -3.2599999E-03    1.0000007E-24
 -3.2250001E-03    1.0000003E-24
 -3.1900001E-03    9.9999923E-25
 -3.1550000E-03    9.9999943E-25
 -3.1200000E-03    1.0000006E-24
 -3.0850000E-03    1.0000005E-24
 -3.0499999E-03    9.9999943E-25
 -3.0149999E-03    1.0000001E-24
 -2.9800001E-03    1.0000013E-24
 -2.9450001E-03    1.0000001E-24
 -2.9100000E-03    9.9999864E-25
 -2.8750000E-03    1.0000000E-24
 -2.8400000E-03    1.0000012E-24
 -2.8049999E-03    9.9999992E-25
 -2.7699999E-03    9.9999903E-25
 -2.7350001E-03    9.9999992E-25
 -2.7000001E-03    1.0000006E-24
 -2.6650000E-03    1.0000006E-24
 -2.6300000E-03    1.0000005E-24
 -2.5950000E-03    9.9999992E-25
 -2.5599999E-03    9.9999992E-25
 -2.5249999E-03    1.0000005E-24
 -2.4900001E-03    1.0000000E-24
 -2.4550001E-03    9.9999913E-25
 -2.4200000E-03    9.9999953E-25
 -2.3850000E-03    1.0000006E-24
 -2.3500000E-03    1.0000009E-24
 -2.3149999E-03    1.0000001E-24
 -2.2799999E-03    9.9999933E-25
 -2.2450001E-03    9.9999963E-25
 -2.2100001E-03    1.0000001E-24
 -2.1750000E-03    1.0000001E-24
 -2.1400000E-03    1.0000001E-24
 -2.1050000E-03    1.0000008E-24
 -2.0699999E-03    1.0000013E-24
 -2.0349999E-03    9.9999992E-25
 -2.0000001E-03    9.9999864E-25
 -1.9650001E-03    9.9999943E-25
 -1.9300000E-03    1.0000006E-24
 -1.8950000E-03    1.0000004E-24
 -1.8600000E-03    1.0000001E-24
 -1.8250000E-03    1.0000002E-24
 -1.7900000E-03    1.0000002E-24
 -1.7550000E-03    9.9999953E-25
 -1.7199999E-03    9.9999943E-25
 -1.6850000E-03    1.0000005E-24
 -1.6500000E-03    1.0000010E-24
 -1.6150000E-03    9.9999992E-25
 -1.5800000E-03    9.9999953E-25
 -1.5450000E-03    1.0000010E-24
 -1.5100000E-03    1.0000007E-24
 -1.4750001E-03    9.9999864E-25
 -1.4400000E-03    9.9999893E-25
 -1.4050000E-03    1.0000006E-24
 -1.3700000E-03    1.0000001E-24
 -1.3350000E-03    9.9999943E-25
 -1.3000000E-03    1.0000007E-24
 -1.2650000E-03    1.0000010E-24
 -1.2300001E-03    9.9999972E-25
 -1.1950000E-03    9.9999933E-25
 -1.1600000E-03    1.0000001E-24
 -1.1250000E-03    1.0000002E-24
 -1.0900000E-03    9.9999982E-25
 -1.0550000E-03    1.0000004E-24
 -1.0200000E-03    1.0000005E-24
 -9.8500005E-04    9.9999972E-25
 -9.5000002E-04    1.0000008E-24
 -9.1499998E-04    1.0000015E-24
 -8.8000001E-04    9.9999982E-25
 -8.4499997E-04    9.9999864E-25
 -8.1000000E-04    9.9999933E-25
 -7.7500002E-04    1.0000003E-24
 -7.3999999E-04    1.0000003E-24
 -7.0500001E-04    1.0000004E-24
 -6.6999998E-04    1.0000005E-24
 -6.3500000E-04    9.9999982E-25
 -6.0000003E-04    9.9999923E-25
 -5.6499999E-04    9.9999953E-25
 -5.3000002E-04    9.9999992E-25
 -4.9499999E-04    1.0000005E-24
 -4.6000001E-04    1.0000011E-24
 -4.2500001E-04    1.0000009E-24
 -3.9000000E-04    1.0000006E-24
 -3.5500000E-04    1.0000004E-24
 -3.1999999E-04    9.9999953E-25
 -2.8499999E-04    9.9999923E-25
 -2.5000001E-04    9.9999982E-25
 -2.1499999E-04    1.0000006E-24
 -1.8000000E-04    1.0000007E-24
 -1.4500000E-04    1.0000004E-24
 -1.1000000E-04    9.9999972E-25
 -7.5000004E-05    9.9999903E-25
 -3.9999999E-05    9.9999943E-25
 -4.9999999E-06    9.9999982E-25
  2.9999999E-05    1.0000001E-24
  6.5000000E-05    1.0000013E-24
  9.9999997E-05    1.0000018E-24
  1.3499999E-04    1.0000004E-24
  1.7000000E-04    9.9999913E-25
  2.0500000E-04    9.9999972E-25
  2.3999999E-04    1.0000004E-24
  2.7500000E-04    9.9999972E-25
  3.1000000E-04    9.9999963E-25
  3.4500001E-04    1.0000004E-24
  3.8000001E-04    9.9999982E-25
  4.1499999E-04    9.9999893E-25
  4.4999999E-04    9.9999943E-25
  4.8500000E-04    1.0000000E-24
  5.2000000E-04    1.0000003E-24
  5.5499998E-04    1.0000009E-24
  5.9000001E-04    1.0000015E-24
  6.2499999E-04    1.0000008E-24
  6.6000002E-04    9.9999972E-25
  6.9500000E-04    9.9999854E-25
  7.3000003E-04    9.9999893E-25
  7.6500000E-04    1.0000015E-24
  7.9999998E-04    1.0000018E-24
  8.3500001E-04    9.9999913E-25
  8.6999999E-04    9.9999923E-25
  9.0500002E-04    1.0000012E-24
  9.4000000E-04    9.9999992E-25
  9.7499997E-04    9.9999765E-25
  1.0100000E-03    1.0000001E-24
  1.0450000E-03    1.0000022E-24
  1.0800000E-03    1.0000001E-24
  1.1150000E-03    9.9999913E-25
  1.1500000E-03    1.0000009E-24
  1.1849999E-03    9.9999972E-25
  1.2200000E-03    9.9999844E-25
  1.2550000E-03    9.9999982E-25
  1.2900000E-03    1.0000007E-24
  1.3250000E-03    1.0000000E-24
  1.3600000E-03    1.0000008E-24
  1.3950000E-03    1.0000010E-24
  1.4299999E-03    9.9999992E-25
  1.4650000E-03    9.9999943E-25
  1.5000000E-03    9.9999923E-25
  1.5350000E-03    1.0000004E-24
  1.5700000E-03    1.0000025E-24
  1.6050000E-03    1.0000008E-24
  1.6400000E-03    9.9999815E-25
  1.6749999E-03    1.0000001E-24
  1.7100000E-03    1.0000016E-24
  1.7450000E-03    9.9999834E-25
  1.7800000E-03    9.9999844E-25
  1.8150000E-03    1.0000015E-24
  1.8500000E-03    1.0000000E-24
  1.8850000E-03    9.9999815E-25
  1.9200000E-03    1.0000006E-24
  1.9550000E-03    1.0000013E-24
  1.9900000E-03    9.9999913E-25
  2.0250001E-03    1.0000002E-24
  2.0600001E-03    1.0000021E-24
  2.0949999E-03    1.0000001E-24
  2.1299999E-03    9.9999913E-25
  2.1650000E-03    1.0000015E-24
  2.2000000E-03    1.0000000E-24
  2.2350000E-03    9.9999716E-25
  2.2700001E-03    1.0000004E-24
  2.3050001E-03    1.0000022E-24
  2.3399999E-03    9.9999874E-25
  2.3749999E-03    9.9999903E-25
  2.4100000E-03    1.0000025E-24
  2.4450000E-03    1.0000003E-24
  2.4800000E-03    9.9999785E-25
  2.5150001E-03    1.0000007E-24
  2.5500001E-03    1.0000017E-24
  2.5849999E-03    9.9999913E-25
  2.6199999E-03    9.9999893E-25
  2.6550000E-03    1.0000012E-24
  2.6900000E-03    1.0000010E-24
  2.7250000E-03    9.9999913E-25
  2.7600001E-03    9.9999864E-25
  2.7950001E-03    1.0000006E-24
  2.8299999E-03    1.0000022E-24
  2.8649999E-03    1.0000002E-24
  2.9000000E-03    9.9999805E-25
  2.9350000E-03    1.0000002E-24
  2.9700000E-03    1.0000021E-24
  3.0050001E-03    9.9999903E-25
  3.0400001E-03    9.9999775E-25
  3.0749999E-03    1.0000022E-24
  3.1099999E-03    1.0000020E-24
  3.1450000E-03    9.9999677E-25
  3.1800000E-03    9.9999824E-25
  3.2150000E-03    1.0000028E-24
  3.2500001E-03    1.0000004E-24
  3.2850001E-03    9.9999893E-25
  3.3199999E-03    1.0000019E-24
  3.3549999E-03    1.0000016E-24
  3.3900000E-03    9.9999923E-25
  3.4250000E-03    9.9999972E-25
  3.4600000E-03    1.0000001E-24
  3.4950001E-03    9.9999903E-25
  3.5300001E-03    9.9999982E-25
  3.5649999E-03    1.0000011E-24
  3.5999999E-03    1.0000012E-24
  3.6350000E-03    9.9999972E-25
  3.6700000E-03    9.9999824E-25
  3.7050000E-03    9.9999963E-25
  3.7400001E-03    1.0000014E-24
  3.7750001E-03    9.9999992E-25
  3.8099999E-03    9.9999933E-25
  3.8449999E-03    1.0000017E-24
  3.8800000E-03    1.0000009E-24
  3.9149998E-03    9.9999746E-25
  3.9499998E-03    9.9999805E-25
  3.9849998E-03    1.0000014E-24
  4.0199999E-03    1.0000013E-24
  4.0549999E-03    9.9999893E-25
  4.0899999E-03    9.9999992E-25
  4.1250000E-03    1.0000034E-24
  4.1600000E-03    1.0000019E-24
  4.1950000E-03    9.9999696E-25
  4.2300001E-03    9.9999874E-25
  4.2650001E-03    1.0000033E-24
  4.3000001E-03    1.0000000E-24
  4.3350002E-03    9.9999716E-25
  4.3700002E-03    1.0000009E-24
  4.4049998E-03    1.0000019E-24
  4.4399998E-03    9.9999775E-25
  4.4749998E-03    9.9999834E-25
  4.5099999E-03    1.0000015E-24
  4.5449999E-03    1.0000008E-24
  4.5799999E-03    9.9999972E-25
  4.6150000E-03    9.9999982E-25
  4.6500000E-03    9.9999963E-25
  4.6850001E-03    1.0000005E-24
  4.7200001E-03    1.0000014E-24
  4.7550001E-03    9.9999982E-25
  4.7900002E-03    9.9999933E-25
  4.8250002E-03    1.0000017E-24
  4.8600002E-03    1.0000015E-24
  4.8949998E-03    9.9999884E-25
  4.9299998E-03    9.9999982E-25
  4.9649999E-03    1.0000013E-24
  4.9999999E-03    9.9999903E-25
  5.0349999E-03    9.9999854E-25
  5.0700000E-03    1.0000015E-24
  5.1050000E-03    1.0000009E-24
  5.1400000E-03    9.9999874E-25
  5.1750001E-03    1.0000014E-24
  5.2100001E-03    1.0000018E-24
  5.2450001E-03    9.9999795E-25
  5.2800002E-03    9.9999834E-25
  5.3150002E-03    1.0000020E-24
  5.3500002E-03    1.0000008E-24
  5.3849998E-03    9.9999913E-25
  5.4199998E-03    1.0000007E-24
  5.4549999E-03    1.0000011E-24
  5.4899999E-03    9.9999972E-25
  5.5249999E-03    9.9999933E-25
  5.5600000E-03    9.9999933E-25
  5.5950000E-03    1.0000000E-24
  5.6300000E-03    1.0000009E-24
  5.6650001E-03    1.0000003E-24
  5.7000001E-03    9.9999992E-25
  5.7350001E-03    1.0000005E-24
  5.7700002E-03    9.9999943E-25
  5.8050002E-03    9.9999923E-25
  5.8400002E-03    1.0000007E-24
  5.8749998E-03    1.0000000E-24
  5.9099998E-03    9.9999844E-25
  5.9449999E-03    1.0000002E-24
  5.9799999E-03    1.0000017E-24
  6.0149999E-03    1.0000003E-24
  6.0500000E-03    9.9999933E-25
  6.0850000E-03    9.9999972E-25
  6.1200000E-03    9.9999963E-25
  6.1550001E-03    9.9999953E-25
  6.1900001E-03    1.0000003E-24
  6.2250001E-03    1.0000011E-24
  6.2600002E-03    1.0000013E-24
  6.2950002E-03    1.0000002E-24
  6.3299998E-03    9.9999933E-25
  6.3649998E-03    1.0000002E-24
  6.3999998E-03    1.0000005E-24
  6.4349999E-03    1.0000001E-24
  6.4699999E-03    9.9999992E-25
  6.5049999E-03    1.0000009E-24
  6.5400000E-03    1.0000011E-24
  6.5750000E-03    9.9999953E-25
  6.6100000E-03    9.9999805E-25
  6.6450001E-03    9.9999864E-25
  6.6800001E-03    1.0000006E-24
  6.7150001E-03    1.0000016E-24
  6.7500002E-03    1.0000002E-24
  6.7850002E-03    9.9999893E-25
  6.8199998E-03    1.0000003E-24
  6.8549998E-03    1.0000012E-24
  6.8899998E-03    9.9999933E-25
  6.9249999E-03    9.9999864E-25
  6.9599999E-03    1.0000006E-24
  6.9949999E-03    1.0000013E-24
  7.0300000E-03    1.0000002E-24
  7.0650000E-03    1.0000012E-24
  7.1000000E-03    1.0000015E-24
  7.1350001E-03    9.9999874E-25
  7.1700001E-03    9.9999795E-25
  7.2050001E-03    1.0000005E-24
  7.2400002E-03    1.0000003E-24
  7.2750002E-03    9.9999903E-25
  7.3099998E-03    1.0000009E-24
  7.3449998E-03    1.0000017E-24
  7.3799998E-03    9.9999864E-25
  7.4149999E-03    9.9999815E-25
  7.4499999E-03    1.0000010E-24
  7.4850000E-03    1.0000013E-24
  7.5200000E-03    9.9999972E-25
  7.5550000E-03    9.9999982E-25
  7.5900001E-03    1.0000016E-24
  7.6250001E-03    1.0000014E-24
  7.6600001E-03    9.9999716E-25
  7.6950002E-03    9.9999588E-25
  7.7300002E-03    1.0000042E-24
  7.7650002E-03    1.0000060E-24
  7.7999998E-03    9.9999272E-25
  7.8349998E-03    9.9999410E-25
  7.8699999E-03    1.0000138E-24
  7.9049999E-03    1.0000039E-24
  7.9399999E-03    9.9997724E-25
  7.9750000E-03    1.0000005E-24
  8.0100000E-03    1.0000328E-24
  8.0450000E-03    9.9999075E-25
  8.0800001E-03    9.9995821E-25
  8.1150001E-03    1.0000259E-24
  8.1500001E-03    1.0000496E-24
  8.1850002E-03    9.9994864E-25
  8.2200002E-03    9.9994874E-25
  8.2550002E-03    1.0000884E-24
  8.2900003E-03    1.0000421E-24
  8.3250003E-03    9.9986443E-25
  8.3600003E-03    9.9999184E-25
  8.3950004E-03    1.0001952E-24
  8.4300004E-03    9.9993533E-25
  8.4650004E-03    9.9973398E-25
  8.5000005E-03    1.0001941E-24
  8.5349996E-03    1.0003362E-24
  8.5699996E-03    9.9958971E-25
  8.6049996E-03    9.9960993E-25
  8.6399997E-03    1.0007498E-24
  8.6749997E-03    1.0004005E-24
  8.7099997E-03    9.9874889E-25
  8.7449998E-03    9.9968319E-25
  8.7799998E-03    1.0019605E-24
  8.8149998E-03    1.0000687E-24
  8.8499999E-03    9.9707956E-25
  8.8849999E-03    1.0004443E-24
  8.9199999E-03    1.0041576E-24
  8.9550000E-03    9.9864288E-25
  8.9900000E-03    9.9433758E-25
  9.0250000E-03    1.0028473E-24
  9.0600001E-03    1.0073658E-24
  9.0950001E-03    9.9487302E-25
  9.1300001E-03    9.9091214E-25
  9.1650002E-03    1.0084364E-24
  9.2000002E-03    1.0104727E-24
  9.2350002E-03    9.8697741E-25
  9.2700003E-03    9.8909836E-25
  9.3050003E-03    1.0191000E-24
  9.3400003E-03    1.0093791E-24
  9.3750004E-03    9.7321859E-25
  9.4100004E-03    9.9562007E-25
  9.4450004E-03    1.0359796E-24
  9.4799995E-03    9.9366754E-25
  9.5149996E-03    9.5373668E-25
  9.5499996E-03    1.0259272E-24
  9.5849996E-03    1.0566810E-24
  9.6199997E-03    9.4127583E-25
  9.6549997E-03    9.3448177E-25
  9.6899997E-03    1.1104086E-24
  9.7249998E-03    1.0700226E-24
  9.7599998E-03    8.1183387E-25
  9.7949998E-03    9.3390669E-25
  9.8299999E-03    1.3006451E-24
  9.8649999E-03    1.0479637E-24
  9.8999999E-03    5.4240064E-25
  9.9350000E-03    9.9209455E-25
  9.9700000E-03    1.6689678E-24
  1.0005000E-02    9.3596364E-25
  1.0040000E-02    5.6915039E-26
  1.0075000E-02    1.1802511E-24
  1.0110000E-02    2.2835658E-24
  1.0145000E-02    6.4423164E-25
  1.0180000E-02   -6.8429226E-25
  1.0215000E-02    1.6086293E-24
  1.0250000E-02    3.1218693E-24
  1.0285000E-02    3.9273998E-26
  1.0320000E-02   -1.5448216E-24
  1.0355000E-02    2.4397115E-24
  1.0390000E-02    3.8589742E-24
  1.0425000E-02   -1.0828968E-24
  1.0460000E-02   -1.9088140E-24
  1.0495000E-02    3.9444161E-24
  1.0530000E-02    3.4554064E-24
  1.0565000E-02   -3.1072422E-24
  1.0600000E-02   -1.5282822E-25
  1.0635000E-02    6.7016290E-24
  1.0670000E-02   -4.7280038E-25
  1.0705000E-02   -6.9308333E-24
  1.0740000E-02    7.0348044E-24
  1.0775000E-02    1.2103287E-23
  1.0810000E-02   -1.2277162E-23
  1.0845000E-02   -1.4666379E-23
  1.0880000E-02    2.5031137E-23
  1.0915000E-02    2.3230985E-23
  1.0950000E-02   -3.8119053E-23
  1.0985000E-02   -3.0565549E-23
  1.1020000E-02    6.0186799E-23
  1.1055000E-02    4.5525523E-23
  1.1090000E-02   -8.3449215E-23
  1.1125000E-02   -6.0866280E-23
  1.1160000E-02    1.1534554E-22
  1.1195000E-02    8.4870320E-23
  1.1230000E-02   -1.4612464E-22
  1.1265000E-02   -1.0870382E-22
  1.1300000E-02    1.8041986E-22
  1.1335000E-02    1.3741311E-22
  1.1370000E-02   -2.0493025E-22
  1.1405000E-02   -1.5649106E-22
  1.1440000E-02    2.2039822E-22
  1.1475000E-02    1.6199603E-22
  1.1510000E-02   -2.1015555E-22
  1.1545000E-02   -1.2631560E-22
  1.1580000E-02    1.7358460E-22
  1.1615000E-02    2.7851804E-23
  1.1650000E-02   -9.6871343E-23
  1.1685000E-02    1.8283873E-22
  1.1720000E-02   -1.0616888E-23
  1.1755000E-02   -5.5156468E-22
  1.1790000E-02    1.4220286E-22
  1.1825000E-02    1.1504143E-21
  1.1860000E-02   -2.5428455E-22
  1.1895000E-02   -2.0393989E-21
  1.1930000E-02    2.9021622E-22
  1.1965000E-02    3.2859225E-21
  1.2000000E-02   -1.4166918E-22
  1.2035000E-02   -4.9122052E-21
  1.2070000E-02   -3.2117138E-22
  1.2105000E-02    6.8973615E-21
  1.2140000E-02    1.2736119E-21
  1.2175000E-02   -9.1061809E-21
  1.2210000E-02   -2.8800373E-21
  1.2245000E-02    1.1275183E-20
  1.2280000E-02    5.2771522E-21
  1.2315000E-02   -1.2934255E-20
  1.2350000E-02   -8.4607192E-21
  1.2385000E-02    1.3403504E-20
  1.2420000E-02    1.2196851E-20
  1.2455000E-02   -1.1755641E-20
  1.2490000E-02   -1.5827771E-20
  1.2525000E-02    6.8973833E-21
  1.2560000E-02    1.8106299E-20
  1.2595000E-02    2.3254608E-21
  1.2630000E-02   -1.6951698E-20
  1.2665000E-02   -1.6834505E-20
  1.2700000E-02    9.2967831E-21
  1.2735000E-02    3.6929973E-20
  1.2770000E-02    9.0322565E-21
  1.2805000E-02   -6.1655710E-20
  1.2840000E-02   -4.3171813E-20
  1.2875000E-02    8.8052801E-20
  1.2910000E-02    9.8801554E-20
  1.2945000E-02   -1.1023335E-19
  1.2980000E-02   -1.8115417E-19
  1.3015000E-02    1.1854508E-19
  1.3050000E-02    2.9340533E-19
  1.3085000E-02   -9.8959429E-20
  1.3120000E-02   -4.3417154E-19
  1.3155000E-02    3.3221609E-20
  1.3190000E-02    5.9420313E-19
  1.3225000E-02    9.9790714E-20
  1.3260000E-02   -7.5230738E-19
  1.3295000E-02   -3.2064612E-19
  1.3330000E-02    8.7113699E-19
  1.3365000E-02    6.4321657E-19
  1.3400000E-02   -8.9371768E-19
  1.3435000E-02   -1.0649974E-18
  1.3470000E-02    7.4248683E-19
  1.3505000E-02    1.5537445E-18
  1.3540000E-02   -3.2307312E-19
  1.3575000E-02   -2.0308785E-18
  1.3610000E-02   -4.6407764E-19
  1.3645000E-02    2.3537836E-18
  1.3680000E-02    1.7011182E-18
  1.3715000E-02   -2.3009270E-18
  1.3750000E-02   -3.4163928E-18
  1.3785000E-02    1.5665545E-18
  1.3820000E-02    5.5333846E-18
  1.3855000E-02    2.2578208E-19
  1.3890000E-02   -7.8075113E-18
  1.3925000E-02   -3.4792048E-18
  1.3960000E-02    9.7592770E-18
  1.3995000E-02    8.5371003E-18
  1.4030000E-02   -1.0620019E-17
  1.4065000E-02   -1.5545043E-17
  1.4100000E-02    9.3161175E-18
  1.4135000E-02    2.4259894E-17
  1.4170000E-02   -4.5265519E-18
  1.4205000E-02   -3.3819316E-17
  1.4240000E-02   -5.1452628E-18
  1.4275000E-02    4.2507121E-17
  1.4310000E-02    2.0846612E-17
  1.4345000E-02   -4.7578029E-17
  1.4380000E-02   -4.2973571E-17
  1.4415000E-02    4.5236599E-17
  1.4450000E-02    7.0502020E-17
  1.4485000E-02   -3.0890620E-17
  1.4520000E-02   -1.0021692E-16
  1.4555000E-02   -1.9126427E-19
  1.4590000E-02    1.2598330E-16
  1.4625000E-02    5.1711047E-17
  1.4660000E-02   -1.3829249E-16
  1.4695000E-02   -1.2462463E-16
  1.4730000E-02    1.2440636E-16
  1.4765000E-02    2.1497205E-16
  1.4800000E-02   -6.9475978E-17
  1.4835000E-02   -3.1154406E-16
  1.4870000E-02   -4.1004663E-17
  1.4905000E-02    3.9391982E-16
  1.4940000E-02    2.1718021E-16
  1.4975000E-02   -4.3166948E-16
  1.5010000E-02   -4.5931055E-16
  1.5045000E-02    3.8571678E-16
  1.5080000E-02    7.5126052E-16
  1.5115000E-02   -2.1290676E-16
  1.5150000E-02   -1.0541360E-15
  1.5185000E-02   -1.2538642E-16
  1.5220000E-02    1.3018913E-15
  1.5255000E-02    6.5037043E-16
  1.5290000E-02   -1.4013420E-15
  1.5325000E-02   -1.3494423E-15
  1.5360000E-02    1.2393305E-15
  1.5395000E-02    2.1585260E-15
  1.5430000E-02   -6.9952481E-16
  1.5465000E-02   -2.9470826E-15
  1.5500000E-02   -3.0978533E-16
  1.5535000E-02    3.5113916E-15
  1.5570000E-02    1.8177077E-15
  1.5605000E-02   -3.5828062E-15
  1.5640000E-02   -3.7466393E-15
  1.5675001E-02    2.8575489E-15
  1.5710000E-02    5.8700789E-15
  1.5745001E-02   -1.0526693E-15
  1.5780000E-02   -7.7845767E-15
  1.5814999E-02   -2.0116421E-15
  1.5850000E-02    8.9111237E-15
  1.5884999E-02    6.3100494E-15
  1.5920000E-02   -8.5420647E-15
  1.5954999E-02   -1.1506040E-14
  1.5990000E-02    5.9463542E-15
  1.6024999E-02    1.6867118E-14
  1.6060000E-02   -5.3758195E-16
  1.6094999E-02   -2.1234540E-14
  1.6130000E-02   -7.9050612E-15
  1.6164999E-02    2.3084265E-14
  1.6200000E-02    1.8991595E-14
  1.6235000E-02   -2.0711160E-14
  1.6270000E-02   -3.1502182E-14
  1.6305000E-02    1.2552784E-14
  1.6340001E-02    4.3262980E-14
  1.6375000E-02    2.3586812E-15
  1.6410001E-02   -5.1196484E-14
  1.6445000E-02   -2.3867056E-14
  1.6480001E-02    5.1619963E-14
  1.6515000E-02    5.0180817E-14
  1.6550001E-02   -4.0837806E-14
  1.6585000E-02   -7.7517331E-14
  1.6620001E-02    1.6020278E-14
  1.6655000E-02    1.0006599E-13
  1.6690001E-02    2.3715484E-14
  1.6725000E-02   -1.1042949E-13
  1.6759999E-02   -7.6198230E-14
  1.6795000E-02    1.0065432E-13
  1.6829999E-02    1.3533200E-13
  1.6865000E-02   -6.3862747E-14
  1.6899999E-02   -1.9078466E-13
  1.6935000E-02   -3.6475869E-15
  1.6969999E-02    2.2856123E-13
  1.7005000E-02    1.0014871E-13
  1.7039999E-02   -2.3270643E-13
  1.7075000E-02   -2.1655782E-13
  1.7109999E-02    1.8820446E-13
  1.7145000E-02    3.3545546E-13
  1.7180000E-02   -8.4872234E-14
  1.7215000E-02   -4.3167843E-13
  1.7250000E-02   -7.8289554E-14
  1.7285001E-02    4.7499228E-13
  1.7320000E-02    2.8915683E-13
  1.7355001E-02   -4.3503227E-13
  1.7390000E-02   -5.2006831E-13
  1.7425001E-02    2.8822393E-13
  1.7460000E-02    7.2811977E-13
  1.7495001E-02   -2.5785726E-14
  1.7530000E-02   -8.5913552E-13
  1.7565001E-02   -3.3868435E-13
  1.7600000E-02    8.5575823E-13
  1.7635001E-02    7.6400355E-13
  1.7670000E-02   -6.6925946E-13
  1.7704999E-02   -1.1806833E-12
  1.7740000E-02    2.7362449E-13
  1.7774999E-02    1.4964794E-12
  1.7810000E-02    3.2060243E-13
  1.7844999E-02   -1.6091065E-12
  1.7880000E-02   -1.0560416E-12
  1.7914999E-02    1.4256059E-12
  1.7950000E-02    1.8253862E-12
  1.7984999E-02   -8.8609117E-13
  1.8020000E-02   -2.4786022E-12
  1.8054999E-02   -1.2195820E-14
  1.8090000E-02    2.8421031E-12
  1.8124999E-02    1.1959681E-12
  1.8160000E-02   -2.7492839E-12
  1.8195000E-02   -2.5080849E-12
  1.8230001E-02    2.0789397E-12
  1.8265000E-02    3.7160201E-12
  1.8300001E-02   -7.9520835E-13
  1.8335000E-02   -4.5395545E-12
  1.8370001E-02   -1.0195734E-12
  1.8405000E-02    4.6970288E-12
  1.8440001E-02    3.1485292E-12
  1.8475000E-02   -3.9650206E-12
  1.8510001E-02   -5.2486821E-12
  1.8545000E-02    2.2418449E-12
  1.8580001E-02    6.8890401E-12
  1.8615000E-02    3.9816818E-13
  1.8650001E-02   -7.6177458E-12
  1.8685000E-02   -3.6739878E-12
  1.8719999E-02    7.0510191E-12
  1.8755000E-02    7.1034277E-12
  1.8789999E-02   -4.9699541E-12
  1.8825000E-02   -1.0052648E-11
  1.8859999E-02    1.4061526E-12
  1.8895000E-02    1.1829405E-11
  1.8929999E-02    3.3048386E-12
  1.8965000E-02   -1.1810226E-11
  1.8999999E-02   -8.5209383E-12
  1.9035000E-02    9.5821458E-12
  1.9069999E-02    1.3353600E-11
  1.9105000E-02   -5.0723171E-12
  1.9140000E-02   -1.6791348E-11
  1.9175000E-02   -1.3640588E-12
  1.9210000E-02    1.7874206E-11
  1.9245001E-02    8.9242858E-12
  1.9280000E-02   -1.5893320E-11
  1.9315001E-02   -1.6424565E-11
  1.9350000E-02    1.0579834E-11
  1.9385001E-02    2.2455265E-11
  1.9420000E-02   -2.2427041E-12
  1.9455001E-02   -2.5610045E-11
  1.9490000E-02   -8.1814330E-12
  1.9525001E-02    2.4756247E-11
  1.9560000E-02    1.9191749E-11
  1.9595001E-02   -1.9300164E-11
  1.9630000E-02   -2.8906870E-11
  1.9664999E-02    9.3942016E-12
  1.9700000E-02    3.5352513E-11
  1.9734999E-02    3.9637078E-12
  1.9770000E-02   -3.6814076E-11
  1.9804999E-02   -1.8974584E-11
  1.9840000E-02    3.2196853E-11
  1.9874999E-02    3.3240338E-11
  1.9910000E-02   -2.1326359E-11
  1.9944999E-02   -4.4108696E-11
  1.9980000E-02    5.1232807E-12
  2.0014999E-02    4.9117030E-11
  2.0050000E-02    1.4397558E-11
  2.0085000E-02   -4.6467042E-11
  2.0120000E-02   -3.4329709E-11
  2.0155000E-02    3.5446344E-11
  2.0190001E-02    5.1269822E-11
  2.0225000E-02   -1.6711863E-11
  2.0260001E-02   -6.1859073E-11
  2.0295000E-02   -7.6368738E-12
  2.0330001E-02    6.3391535E-11
  2.0365000E-02    3.4236752E-11
  2.0400001E-02   -5.4386776E-11
  2.0435000E-02   -5.8894445E-11
  2.0470001E-02    3.5015636E-11
  2.0505000E-02    7.7228099E-11
  2.0540001E-02   -7.2803265E-12
  2.0575000E-02   -8.5425472E-11
  2.0609999E-02   -2.5117103E-11
  2.0645000E-02    8.0991852E-11
  2.0679999E-02    5.7233034E-11
  2.0715000E-02   -6.3345960E-11
  2.0749999E-02   -8.3621894E-11
  2.0785000E-02    3.4132516E-11
  2.0819999E-02    9.9249144E-11
  2.0855000E-02    2.8399752E-12
  2.0889999E-02   -1.0042510E-10
  2.0925000E-02   -4.2065074E-11
  2.0959999E-02    8.5583179E-11
  2.0995000E-02    7.7160230E-11
  2.1029999E-02   -5.5740128E-11
  2.1065000E-02   -1.0192136E-10
  2.1100000E-02    1.4521606E-11
  2.1135001E-02    1.1142978E-10
  2.1170000E-02    3.2286836E-11
  2.1205001E-02   -1.0300497E-10
  2.1240000E-02   -7.7613582E-11
  2.1275001E-02    7.6811918E-11
  2.1310000E-02    1.1426129E-10
  2.1345001E-02   -3.5985655E-11
  2.1380000E-02   -1.3615031E-10
  2.1415001E-02   -1.3775496E-11
  2.1450000E-02    1.3941272E-10
  2.1485001E-02    6.5094360E-11
  2.1520000E-02   -1.2312371E-10
  2.1555001E-02   -1.1012496E-10
  2.1590000E-02    8.9521203E-11
  2.1624999E-02    1.4186505E-10
  2.1660000E-02   -4.3664166E-11
  2.1694999E-02   -1.5532264E-10
  2.1730000E-02   -7.4041962E-12
  2.1764999E-02    1.4831784E-10
  2.1800000E-02    5.5822378E-11
  2.1834999E-02   -1.2178088E-10
  2.1870000E-02   -9.4176340E-11
  2.1904999E-02    7.9517122E-11
  2.1940000E-02    1.1662900E-10
  2.1974999E-02   -2.7520309E-11
  2.2010000E-02   -1.1972739E-10
  2.2045000E-02   -2.7002300E-11
  2.2080000E-02    1.0278903E-10
  2.2115000E-02    7.6698377E-11
  2.2150001E-02   -6.7868509E-11
  2.2185000E-02   -1.1506312E-10
  2.2220001E-02    1.9377271E-11
  2.2255000E-02    1.3724522E-10
  2.2290001E-02    3.6542460E-11
  2.2325000E-02   -1.4061488E-10
  2.2360001E-02   -9.2797915E-11
  2.2395000E-02    1.2507941E-10
  2.2430001E-02    1.4221431E-10
  2.2465000E-02   -9.3137706E-11
  2.2500001E-02   -1.7844064E-10
  2.2535000E-02    4.9651436E-11
  2.2569999E-02    1.9683032E-10
  2.2605000E-02   -1.2990611E-12
  2.2639999E-02   -1.9519199E-10
  2.2675000E-02   -4.4292667E-11
  2.2709999E-02    1.7426269E-10
  2.2745000E-02    7.9670701E-11
  2.2779999E-02   -1.3775836E-10
  2.2815000E-02   -9.8773066E-11
  2.2849999E-02    9.1917605E-11
  2.2885000E-02    9.8023908E-11
  2.2919999E-02   -4.4555162E-11
  2.2955000E-02   -7.7080009E-11
  2.2990000E-02    3.7470929E-12
  2.3025000E-02    3.9044361E-11
  2.3060000E-02    2.3636759E-11
  2.3095001E-02    9.9482046E-12
  2.3130000E-02   -3.3287061E-11
  2.3165001E-02   -6.1754872E-11
  2.3200000E-02    2.4430857E-11
  2.3235001E-02    1.0773311E-10
  2.3270000E-02   -2.0451722E-13
  2.3305001E-02   -1.4052812E-10
  2.3340000E-02   -3.2765429E-11
  2.3375001E-02    1.5581990E-10
  2.3410000E-02    6.5667749E-11
  2.3445001E-02   -1.5358614E-10
  2.3480000E-02   -8.9583438E-11
  2.3514999E-02    1.3839629E-10
  2.3550000E-02    9.7908619E-11
  2.3584999E-02   -1.1841662E-10
  2.3620000E-02   -8.8439443E-11
  2.3654999E-02    1.0315871E-10
  2.3690000E-02    6.4342559E-11
  2.3724999E-02   -1.0048271E-10
  2.3760000E-02   -3.3426505E-11
  2.3794999E-02    1.1382401E-10
  2.3830000E-02    5.6713900E-12
  2.3864999E-02   -1.4079002E-10
  2.3900000E-02    1.0232761E-11
  2.3934999E-02    1.7387637E-10
  2.3970000E-02   -9.9914044E-12
  2.4005000E-02   -2.0315460E-10
  2.4040001E-02   -4.8587610E-12
  2.4075000E-02    2.1987312E-10
  2.4110001E-02    2.7815071E-11
  2.4145000E-02   -2.1945035E-10
  2.4180001E-02   -5.0183292E-11
  2.4215000E-02    2.0255866E-10
  2.4250001E-02    6.4437192E-11
  2.4285000E-02   -1.7390130E-10
  2.4320001E-02   -6.6483478E-11
  2.4355000E-02    1.3956906E-10
  2.4390001E-02    5.5825528E-11
  2.4425000E-02   -1.0466771E-10
  2.4460001E-02   -3.4001389E-11
  2.4495000E-02    7.2549459E-11
  2.4529999E-02    2.7445303E-12
  2.4565000E-02   -4.5746570E-11
  2.4599999E-02    3.6651529E-11
  2.4635000E-02    2.7475218E-11
  2.4669999E-02   -8.2216296E-11
  2.4705000E-02   -2.2051468E-11
  2.4739999E-02    1.2930490E-10
  2.4775000E-02    3.3156769E-11
  2.4809999E-02   -1.6971025E-10
  2.4845000E-02   -6.0615471E-11
  2.4879999E-02    1.9355118E-10
  2.4915000E-02    9.8014701E-11
  2.4950000E-02   -1.9366242E-10
  2.4985000E-02   -1.3353491E-10
  2.5020000E-02    1.7008478E-10
  2.5055001E-02    1.5453491E-10
  2.5090000E-02   -1.3155023E-10
  2.5125001E-02   -1.5394232E-10
  2.5160000E-02    9.2049701E-11
  2.5195001E-02    1.3462646E-10
  2.5230000E-02   -6.3508449E-11
  2.5265001E-02   -1.0822042E-10
  2.5300000E-02    4.8829690E-11
  2.5335001E-02    8.8166432E-11
  2.5370000E-02   -4.0210654E-11
  2.5405001E-02   -8.1000526E-11
  2.5440000E-02    2.4487513E-11
  2.5474999E-02    8.1496268E-11
  2.5510000E-02    7.1603682E-12
  2.5544999E-02   -7.5476347E-11
  2.5580000E-02   -5.0954893E-11
  2.5614999E-02    4.9982636E-11
  2.5650000E-02    9.0141443E-11
  2.5684999E-02   -4.9752459E-12
  2.5720000E-02   -1.0489604E-10
  2.5754999E-02   -4.2438726E-11
  2.5790000E-02    8.6914843E-11
  2.5824999E-02    6.6003918E-11
  2.5860000E-02   -4.8392804E-11
  2.5895000E-02   -4.6392470E-11
  2.5930000E-02    1.8580460E-11
  2.5965000E-02   -1.4113978E-11
  2.6000001E-02   -2.8229294E-11
  2.6035000E-02    8.7826822E-11
  2.6070001E-02    8.9021908E-11
  2.6105000E-02   -1.3439032E-10
  2.6140001E-02   -1.8108218E-10
  2.6175000E-02    1.2563532E-10
  2.6210001E-02    2.6040320E-10
  2.6245000E-02   -6.6129706E-11
  2.6280001E-02   -2.8383562E-10
  2.6315000E-02   -5.7495779E-12
  2.6350001E-02    2.3585200E-10
  2.6385000E-02    3.7779949E-11
  2.6419999E-02   -1.4074912E-10
  2.6455000E-02    5.9424228E-12
  2.6489999E-02    5.2456317E-11
  2.6525000E-02   -1.2028034E-10
  2.6559999E-02   -2.3219791E-11
  2.6595000E-02    2.5841246E-10
  2.6629999E-02    6.9748651E-11
  2.6665000E-02   -3.5938780E-10
  2.6699999E-02   -1.6086034E-10
  2.6735000E-02    3.8704343E-10
  2.6769999E-02    2.3768137E-10
  2.6805000E-02   -3.5161390E-10
  2.6839999E-02   -2.4976607E-10
  2.6875000E-02    3.0448194E-10
  2.6910000E-02    1.8946751E-10
  2.6945001E-02   -3.0353697E-10
  2.6980000E-02   -9.8178014E-11