 -4.8000002E-03    1.0000000E-24
 -4.7650002E-03    1.0000001E-24
 -4.7300002E-03    1.0000002E-24
 -4.6950001E-03    1.0000002E-24
 -4.6600001E-03    1.0000002E-24
 -4.6250001E-03    1.0000001E-24
 -4.5900000E-03    1.0000000E-24
 -4.5550000E-03    1.0000001E-24
 -4.5200000E-03    1.0000003E-24
 -4.4849999E-03    1.0000002E-24
 -4.4499999E-03    1.0000000E-24
 -4.4149999E-03    9.9999982E-25
 -4.3799998E-03    9.9999992E-25
 -4.3449998E-03    1.0000004E-24
 -4.3100002E-03    1.0000005E-24
 -4.2750002E-03    1.0000001E-24
 -4.2400002E-03    9.9999972E-25
 -4.2050001E-03    9.9999992E-25
 -4.1700001E-03    1.0000002E-24
 -4.1350001E-03    1.0000000E-24
 -4.1000000E-03    1.0000000E-24
 -4.0650000E-03    1.0000002E-24
 -4.0300000E-03    1.0000005E-24
 -3.9949999E-03    1.0000002E-24
 -3.9599999E-03    9.9999982E-25
 -3.9249999E-03    9.9999972E-25
 -3.8900001E-03    1.0000001E-24
 -3.8550000E-03    1.0000004E-24
 -3.8200000E-03    9.9999992E-25
 -3.7849999E-03    9.9999982E-25
 -3.7499999E-03    1.0000001E-24
 -3.7150001E-03    1.0000005E-24
 -3.6800001E-03    1.0000006E-24
 -3.6450000E-03    1.0000003E-24
 -3.6100000E-03    9.9999982E-25
 -3.5750000E-03    9.9999972E-25
 -3.5399999E-03    1.0000001E-24
 -3.5049999E-03    1.0000003E-24
 -3.4700001E-03    1.0000003E-24
 -3.4350001E-03    1.0000003E-24
 -3.4000000E-03    1.0000000E-24
 -3.3650000E-03    9.9999953E-25
 -3.3300000E-03    9.9999963E-25
 -3.2949999E-03    1.0000003E-24
 -3.2599999E-03    1.0000006E-24
 -3.2250001E-03    1.0000002E-24
 -3.1900001E-03    9.9999992E-25
 -3.1550000E-03    9.9999992E-25
 -3.1200000E-03    1.0000001E-24
 -3.0850000E-03    1.0000003E-24
 -3.0499999E-03    1.0000000E-24
 -3.0149999E-03    9.9999982E-25
 -2.9800001E-03    1.0000000E-24
 -2.9450001E-03    1.0000002E-24
 -2.9100000E-03    1.0000002E-24
 -2.8750000E-03    1.0000003E-24
 -2.8400000E-03    1.0000005E-24
 -2.8049999E-03    1.0000001E-24
 -2.7699999E-03    9.9999963E-25
 -2.7350001E-03    9.9999982E-25
 -2.7000001E-03    1.0000004E-24
 -2.6650000E-03    1.0000009E-24
 -2.6300000E-03    1.0000005E-24
 -2.5950000E-03    9.9999963E-25
 -2.5599999E-03    9.9999963E-25
 -2.5249999E-03    1.0000003E-24
 -2.4900001E-03    1.0000007E-24
 -2.4550001E-03    1.0000000E-24
 -2.4200000E-03    9.9999963E-25
 -2.3850000E-03    9.9999982E-25
 -2.3500000E-03    1.0000000E-24
 -2.3149999E-03    1.0000007E-24
 -2.2799999E-03    1.0000011E-24
 -2.2450001E-03    1.0000006E-24
 -2.2100001E-03    9.9999933E-25
 -2.1750000E-03    9.9999913E-25
 -2.1400000E-03    1.0000001E-24
 -2.1050000E-03    1.0000008E-24
 -2.0699999E-03    1.0000000E-24
 -2.0349999E-03    9.9999923E-25
 -2.0000001E-03    9.9999963E-25
 -1.9650001E-03    1.0000008E-24
 -1.9300000E-03    1.0000010E-24
 -1.8950000E-03    1.0000006E-24
 -1.8600000E-03    1.0000002E-24
 -1.8250000E-03    9.9999992E-25
 -1.7900000E-03    9.9999953E-25
 -1.7550000E-03    9.9999963E-25
 -1.7199999E-03    1.0000001E-24
 -1.6850000E-03    1.0000007E-24
 -1.6500000E-03    1.0000006E-24
 -1.6150000E-03    9.9999982E-25
 -1.5800000E-03    9.9999953E-25
 -1.5450000E-03    1.0000000E-24
 -1.5100000E-03    1.0000001E-24
 -1.4750001E-03    1.0000001E-24
 -1.4400000E-03    1.0000008E-24
 -1.4050000E-03    1.0000009E-24
 -1.3700000E-03    9.9999963E-25
 -1.3350000E-03    9.9999884E-25
 -1.3000000E-03    9.9999972E-25
 -1.2650000E-03    1.0000010E-24
 -1.2300001E-03    1.0000009E-24
 -1.1950000E-03    9.9999982E-25
 -1.1600000E-03    9.9999913E-25
 -1.1250000E-03    9.9999972E-25
 -1.0900000E-03    1.0000005E-24
 -1.0550000E-03    1.0000006E-24
 -1.0200000E-03    1.0000001E-24
 -9.8500005E-04    1.0000003E-24
 -9.5000002E-04    1.0000008E-24
 -9.1499998E-04    1.0000003E-24
 -8.8000001E-04    9.9999913E-25
 -8.4499997E-04    9.9999893E-25
 -8.1000000E-04    1.0000003E-24
 -7.7500002E-04    1.0000018E-24
 -7.3999999E-04    1.0000015E-24
 -7.0500001E-04    9.9999972E-25
 -6.6999998E-04    9.9999913E-25
 -6.3500000E-04    9.9999963E-25
 -6.0000003E-04    9.9999992E-25
 -5.6499999E-04    9.9999992E-25
 -5.3000002E-04    1.0000005E-24
 -4.9499999E-04    1.0000004E-24
 -4.6000001E-04    9.9999923E-25
 -4.2500001E-04    9.9999923E-25
 -3.9000000E-04    1.0000010E-24
 -3.5500000E-04    1.0000018E-24
 -3.1999999E-04    1.0000003E-24
 -2.8499999E-04    9.9999854E-25
 -2.5000001E-04    9.9999884E-25
 -2.1499999E-04    1.0000006E-24
 -1.8000000E-04    1.0000017E-24
 -1.4500000E-04    1.0000007E-24
 -1.1000000E-04    1.0000000E-24
 -7.5000004E-05    1.0000005E-24
 -3.9999999E-05    1.0000000E-24
 -4.9999999E-06    9.9999874E-25
  2.9999999E-05    9.9999903E-25
  6.5000000E-05    1.0000005E-24
  9.9999997E-05    1.0000005E-24
  1.3499999E-04    9.9999963E-25
  1.7000000E-04    9.9999963E-25
  2.0500000E-04    1.0000008E-24
  2.3999999E-04    1.0000014E-24
  2.7500000E-04    1.0000005E-24
  3.1000000E-04    9.9999972E-25
  3.4500001E-04    9.9999992E-25
  3.8000001E-04    1.0000000E-24
  4.1499999E-04    9.9999933E-25
  4.4999999E-04    9.9999913E-25
  4.8500000E-04    1.0000002E-24
  5.2000000E-04    1.0000015E-24
  5.5499998E-04    1.0000011E-24
  5.9000001E-04    9.9999972E-25
  6.2499999E-04    9.9999933E-25
  6.6000002E-04    9.9999992E-25
  6.9500000E-04    1.0000004E-24
  7.3000003E-04    1.0000004E-24
  7.6500000E-04    1.0000002E-24
  7.9999998E-04    1.0000001E-24
  8.3500001E-04    1.0000008E-24
  8.6999999E-04    1.0000007E-24
  9.0500002E-04    9.9999913E-25
  9.4000000E-04    9.9999874E-25
  9.7499997E-04    1.0000002E-24
  1.0100000E-03    1.0000011E-24
  1.0450000E-03    1.0000003E-24
  1.0800000E-03    9.9999953E-25
  1.1150000E-03    9.9999972E-25
  1.1500000E-03    1.0000003E-24
  1.1849999E-03    1.0000003E-24
  1.2200000E-03    9.9999972E-25
  1.2550000E-03    1.0000002E-24
  1.2900000E-03    1.0000011E-24
  1.3250000E-03    1.0000002E-24
  1.3600000E-03    9.9999933E-25
  1.3950000E-03    1.0000003E-24
  1.4299999E-03    1.0000009E-24
  1.4650000E-03    1.0000003E-24
  1.5000000E-03    9.9999963E-25
  1.5350000E-03    9.9999913E-25
  1.5700000E-03    9.9999884E-25
  1.6050000E-03    9.9999953E-25
  1.6400000E-03    1.0000002E-24
  1.6749999E-03    1.0000004E-24
  1.7100000E-03    1.0000005E-24
  1.7450000E-03    1.0000003E-24
  1.7800000E-03    9.9999982E-25
  1.8150000E-03    9.9999992E-25
  1.8500000E-03    1.0000006E-24
  1.8850000E-03    1.0000010E-24
  1.9200000E-03    1.0000008E-24
  1.9550000E-03    9.9999992E-25
  1.9900000E-03    9.9999982E-25
  2.0250001E-03    1.0000005E-24
  2.0600001E-03    1.0000004E-24
  2.0949999E-03    9.9999963E-25
  2.1299999E-03    9.9999933E-25
  2.1650000E-03    9.9999992E-25
  2.2000000E-03    1.0000008E-24
  2.2350000E-03    1.0000015E-24
  2.2700001E-03    1.0000008E-24
  2.3050001E-03    9.9999903E-25
  2.3399999E-03    9.9999824E-25
  2.3749999E-03    9.9999972E-25
  2.4100000E-03    1.0000016E-24
  2.4450000E-03    1.0000008E-24
  2.4800000E-03    9.9999963E-25
  2.5150001E-03    9.9999982E-25
  2.5500001E-03    1.0000003E-24
  2.5849999E-03    1.0000003E-24
  2.6199999E-03    1.0000004E-24
  2.6550000E-03    1.0000004E-24
  2.6900000E-03    9.9999953E-25
  2.7250000E-03    9.9999854E-25
  2.7600001E-03    9.9999903E-25
  2.7950001E-03    1.0000013E-24
  2.8299999E-03    1.0000021E-24
  2.8649999E-03    9.9999933E-25
  2.9000000E-03    9.9999755E-25
  2.9350000E-03    9.9999943E-25
  2.9700000E-03    1.0000017E-24
  3.0050001E-03    1.0000018E-24
  3.0400001E-03    1.0000008E-24
  3.0749999E-03    1.0000001E-24
  3.1099999E-03    9.9999953E-25
  3.1450000E-03    9.9999893E-25
  3.1800000E-03    9.9999923E-25
  3.2150000E-03    1.0000008E-24
  3.2500001E-03    1.0000013E-24
  3.2850001E-03    1.0000001E-24
  3.3199999E-03    9.9999982E-25
  3.3549999E-03    1.0000002E-24
  3.3900000E-03    1.0000002E-24
  3.4250000E-03    1.0000005E-24
  3.4600000E-03    1.0000012E-24
  3.4950001E-03    1.0000004E-24
  3.5300001E-03    9.9999884E-25
  3.5649999E-03    9.9999893E-25
  3.5999999E-03    1.0000004E-24
  3.6350000E-03    1.0000014E-24
  3.6700000E-03    1.0000012E-24
  3.7050000E-03    1.0000001E-24
  3.7400001E-03    9.9999933E-25
  3.7750001E-03    9.9999943E-25
  3.8099999E-03    1.0000000E-24
  3.8449999E-03    1.0000010E-24
  3.8800000E-03    1.0000014E-24
  3.9149998E-03    1.0000003E-24
  3.9499998E-03    9.9999864E-25
  3.9849998E-03    9.9999874E-25
  4.0199999E-03    9.9999982E-25
  4.0549999E-03    1.0000000E-24
  4.0899999E-03    9.9999943E-25
  4.1250000E-03    1.0000003E-24
  4.1600000E-03    1.0000007E-24
  4.1950000E-03    9.9999943E-25
  4.2300001E-03    9.9999903E-25
  4.2650001E-03    1.0000012E-24
  4.3000001E-03    1.0000024E-24
  4.3350002E-03    1.0000003E-24
  4.3700002E-03    9.9999854E-25
  4.4049998E-03    1.0000001E-24
  4.4399998E-03    1.0000022E-24
  4.4749998E-03    1.0000016E-24
  4.5099999E-03    9.9999972E-25
  4.5449999E-03    9.9999884E-25
  4.5799999E-03    9.9999913E-25
  4.6150000E-03    9.9999972E-25
  4.6500000E-03    9.9999972E-25
  4.6850001E-03    1.0000000E-24
  4.7200001E-03    1.0000005E-24
  4.7550001E-03    9.9999972E-25
  4.7900002E-03    9.9999903E-25
  4.8250002E-03    1.0000002E-24
  4.8600002E-03    1.0000013E-24
  4.8949998E-03    1.0000007E-24
  4.9299998E-03    9.9999982E-25
  4.9649999E-03    9.9999963E-25
  4.9999999E-03    9.9999963E-25
  5.0349999E-03    9.9999982E-25
  5.0700000E-03    1.0000004E-24
  5.1050000E-03    1.0000006E-24
  5.1400000E-03    1.0000001E-24
  5.1750001E-03    9.9999943E-25
  5.2100001E-03    9.9999953E-25
  5.2450001E-03    1.0000002E-24
  5.2800002E-03    1.0000006E-24
  5.3150002E-03    1.0000015E-24
  5.3500002E-03    1.0000020E-24
  5.3849998E-03    9.9999992E-25
  5.4199998E-03    9.9999775E-25
  5.4549999E-03    9.9999913E-25
  5.4899999E-03    1.0000017E-24
  5.5249999E-03    1.0000016E-24
  5.5600000E-03    1.0000003E-24
  5.5950000E-03    9.9999972E-25
  5.6300000E-03    1.0000002E-24
  5.6650001E-03    1.0000002E-24
  5.7000001E-03    9.9999903E-25
  5.7350001E-03    9.9999933E-25
  5.7700002E-03    1.0000010E-24
  5.8050002E-03    1.0000000E-24
  5.8400002E-03    9.9999775E-25
  5.8749998E-03    9.9999854E-25
  5.9099998E-03    1.0000016E-24
  5.9449999E-03    1.0000026E-24
  5.9799999E-03    1.0000005E-24
  6.0149999E-03    9.9999874E-25
  6.0500000E-03    9.9999953E-25
  6.0850000E-03    1.0000007E-24
  6.1200000E-03    1.0000005E-24
  6.1550001E-03    9.9999972E-25
  6.1900001E-03    9.9999933E-25
  6.2250001E-03    9.9999992E-25
  6.2600002E-03    1.0000012E-24
  6.2950002E-03    1.0000006E-24
  6.3299998E-03    9.9999854E-25
  6.3649998E-03    9.9999903E-25
  6.3999998E-03    1.0000014E-24
  6.4349999E-03    1.0000012E-24
  6.4699999E-03    9.9999923E-25
  6.5049999E-03    9.9999903E-25
  6.5400000E-03    1.0000000E-24
  6.5750000E-03    1.0000016E-24
  6.6100000E-03    1.0000022E-24
  6.6450001E-03    1.0000004E-24
  6.6800001E-03    9.9999864E-25
  6.7150001E-03    9.9999913E-25
  6.7500002E-03    1.0000005E-24
  6.7850002E-03    1.0000006E-24
  6.8199998E-03    9.9999963E-25
  6.8549998E-03    9.9999923E-25
  6.8899998E-03    9.9999953E-25
  6.9249999E-03    9.9999982E-25
  6.9599999E-03    9.9999972E-25
  6.9949999E-03    1.0000000E-24
  7.0300000E-03    1.0000009E-24
  7.0650000E-03    1.0000010E-24
  7.1000000E-03    1.0000010E-24
  7.1350001E-03    1.0000009E-24
  7.1700001E-03    9.9999972E-25
  7.2050001E-03    9.9999854E-25
  7.2400002E-03    9.9999903E-25
  7.2750002E-03    1.0000005E-24
  7.3099998E-03    1.0000008E-24
  7.3449998E-03    1.0000006E-24
  7.3799998E-03    1.0000005E-24
  7.4149999E-03    1.0000002E-24
  7.4499999E-03    9.9999933E-25
  7.4850000E-03    9.9999972E-25
  7.5200000E-03    1.0000008E-24
  7.5550000E-03    1.0000004E-24
  7.5900001E-03    9.9999933E-25
  7.6250001E-03    1.0000004E-24
  7.6600001E-03    1.0000014E-24
  7.6950002E-03    9.9999953E-25
  7.7300002E-03    9.9999854E-25
  7.7650002E-03    1.0000001E-24
  7.7999998E-03    1.0000002E-24
  7.8349998E-03    9.9999893E-25
  7.8699999E-03    9.9999953E-25
  7.9049999E-03    1.0000009E-24
  7.9399999E-03    1.0000013E-24
  7.9750000E-03    1.0000009E-24
  8.0100000E-03    9.9999972E-25
  8.0450000E-03    9.9999884E-25
  8.0800001E-03    9.9999943E-25
  8.1150001E-03    1.0000002E-24
  8.1500001E-03    1.0000010E-24
  8.1850002E-03    1.0000019E-24
  8.2200002E-03    1.0000013E-24
  8.2550002E-03    9.9999943E-25
  8.2900003E-03    9.9999844E-25
  8.3250003E-03    9.9999884E-25
  8.3600003E-03    1.0000001E-24
  8.3950004E-03    1.0000013E-24
  8.4300004E-03    1.0000011E-24
  8.4650004E-03    1.0000001E-24
  8.5000005E-03    1.0000003E-24
  8.5349996E-03    9.9999992E-25
  8.5699996E-03    9.9999834E-25
  8.6049996E-03    9.9999864E-25
  8.6399997E-03    1.0000012E-24
  8.6749997E-03    1.0000021E-24
  8.7099997E-03    1.0000006E-24
  8.7449998E-03    9.9999913E-25
  8.7799998E-03    9.9999884E-25
  8.8149998E-03    9.9999923E-25
  8.8499999E-03    9.9999963E-25
  8.8849999E-03    9.9999992E-25
  8.9199999E-03    1.0000011E-24
  8.9550000E-03    1.0000026E-24
  8.9900000E-03    1.0000018E-24
  9.0250000E-03    9.9999864E-25
  9.0600001E-03    9.9999716E-25
  9.0950001E-03    9.9999963E-25
  9.1300001E-03    1.0000022E-24
  9.1650002E-03    1.0000009E-24
  9.2000002E-03    9.9999923E-25
  9.2350002E-03    9.9999992E-25
  9.2700003E-03    1.0000013E-24
  9.3050003E-03    1.0000015E-24
  9.3400003E-03    1.0000006E-24
  9.3750004E-03    9.9999943E-25
  9.4100004E-03    9.9999963E-25
  9.4450004E-03    1.0000003E-24
  9.4799995E-03    9.9999963E-25
  9.5149996E-03    9.9999992E-25
  9.5499996E-03    1.0000016E-24
  9.5849996E-03    1.0000009E-24
  9.6199997E-03    9.9999844E-25
  9.6549997E-03    9.9999834E-25
  9.6899997E-03    9.9999963E-25
  9.7249998E-03    1.0000000E-24
  9.7599998E-03    1.0000006E-24
  9.7949998E-03    1.0000014E-24
  9.8299999E-03    1.0000008E-24
  9.8649999E-03    9.9999963E-25
  9.8999999E-03    9.9999982E-25
  9.9350000E-03    1.0000011E-24
  9.9700000E-03    1.0000019E-24
  1.0005000E-02    1.0000006E-24
  1.0040000E-02    9.9999854E-25
  1.0075000E-02    9.9999834E-25
  1.0110000E-02    1.0000000E-24
  1.0145000E-02    1.0000015E-24
  1.0180000E-02    1.0000012E-24
  1.0215000E-02    9.9999933E-25
  1.0250000E-02    9.9999805E-25
  1.0285000E-02    9.9999953E-25
  1.0320000E-02    1.0000016E-24
  1.0355000E-02    1.0000011E-24
  1.0390000E-02    9.9999933E-25
  1.0425000E-02    9.9999963E-25
  1.0460000E-02    1.0000015E-24
  1.0495000E-02    1.0000006E-24
  1.0530000E-02    9.9999765E-25
  1.0565000E-02    9.9999805E-25
  1.0600000E-02    1.0000019E-24
  1.0635000E-02    1.0000031E-24
  1.0670000E-02    1.0000012E-24
  1.0705000E-02    9.9999972E-25
  1.0740000E-02    9.9999903E-25
  1.0775000E-02    9.9999824E-25
  1.0810000E-02    9.9999893E-25
  1.0845000E-02    1.0000006E-24
  1.0880000E-02    1.0000019E-24
  1.0915000E-02    1.0000022E-24
  1.0950000E-02    1.0000005E-24
  1.0985000E-02    9.9999765E-25
  1.1020000E-02    9.9999667E-25
  1.1055000E-02    9.9999874E-25
  1.1090000E-02    1.0000012E-24
  1.1125000E-02    1.0000022E-24
  1.1160000E-02    1.0000015E-24
  1.1195000E-02    1.0000003E-24
  1.1230000E-02    9.9999982E-25
  1.1265000E-02    9.9999972E-25
  1.1300000E-02    1.0000000E-24
  1.1335000E-02    1.0000008E-24
  1.1370000E-02    1.0000010E-24
  1.1405000E-02    1.0000011E-24
  1.1440000E-02    1.0000008E-24
  1.1475000E-02    9.9999953E-25
  1.1510000E-02    9.9999815E-25
  1.1545000E-02    9.9999785E-25
  1.1580000E-02    9.9999923E-25
  1.1615000E-02    1.0000015E-24
  1.1650000E-02    1.0000023E-24
  1.1685000E-02    1.0000006E-24
  1.1720000E-02    9.9999923E-25
  1.1755000E-02    9.9999913E-25
  1.1790000E-02    9.9999893E-25
  1.1825000E-02    1.0000002E-24
  1.1860000E-02    1.0000026E-24
  1.1895000E-02    1.0000022E-24
  1.1930000E-02    9.9999992E-25
  1.1965000E-02    9.9999893E-25
  1.2000000E-02    9.9999884E-25
  1.2035000E-02    9.9999854E-25
  1.2070000E-02    9.9999923E-25
  1.2105000E-02    1.0000011E-24
  1.2140000E-02    1.0000019E-24
  1.2175000E-02    1.0000008E-24
  1.2210000E-02    9.9999953E-25
  1.2245000E-02    9.9999903E-25
  1.2280000E-02    9.9999834E-25
  1.2315000E-02    9.9999884E-25
  1.2350000E-02    1.0000012E-24
  1.2385000E-02    1.0000024E-24
  1.2420000E-02    1.0000004E-24
  1.2455000E-02    9.9999893E-25
  1.2490000E-02    9.9999992E-25
  1.2525000E-02    1.0000004E-24
  1.2560000E-02    9.9999972E-25
  1.2595000E-02    9.9999933E-25
  1.2630000E-02    1.0000009E-24
  1.2665000E-02    1.0000024E-24
  1.2700000E-02    1.0000008E-24
  1.2735000E-02    9.9999834E-25
  1.2770000E-02    9.9999903E-25
  1.2805000E-02    1.0000001E-24
  1.2840000E-02    9.9999972E-25
  1.2875000E-02    1.0000005E-24
  1.2910000E-02    1.0000020E-24
  1.2945000E-02    1.0000012E-24
  1.2980000E-02    9.9999982E-25
  1.3015000E-02    9.9999953E-25
  1.3050000E-02    9.9999943E-25
  1.3085000E-02    9.9999884E-25
  1.3120000E-02    9.9999893E-25
  1.3155000E-02    1.0000000E-24
  1.3190000E-02    1.0000009E-24
  1.3225000E-02    1.0000008E-24
  1.3260000E-02    1.0000010E-24
  1.3295000E-02    1.0000008E-24
  1.3330000E-02    1.0000000E-24
  1.3365000E-02    9.9999933E-25
  1.3400000E-02    9.9999864E-25
  1.3435000E-02    9.9999844E-25
  1.3470000E-02    1.0000007E-24
  1.3505000E-02    1.0000037E-24
  1.3540000E-02    1.0000034E-24
  1.3575000E-02    1.0000010E-24
  1.3610000E-02    9.9999893E-25
  1.3645000E-02    9.9999706E-25
  1.3680000E-02    9.9999686E-25
  1.3715000E-02    9.9999992E-25
  1.3750000E-02    1.0000036E-24
  1.3785000E-02    1.0000040E-24
  1.3820000E-02    1.0000008E-24
  1.3855000E-02    9.9999696E-25
  1.3890000E-02    9.9999588E-25
  1.3925000E-02    9.9999815E-25
  1.3960000E-02    1.0000008E-24
  1.3995000E-02    1.0000025E-24
  1.4030000E-02    1.0000029E-24
  1.4065000E-02    1.0000010E-24
  1.4100000E-02    9.9999795E-25
  1.4135000E-02    9.9999785E-25
  1.4170000E-02    1.0000004E-24
  1.4205000E-02    1.0000013E-24
  1.4240000E-02    9.9999982E-25
  1.4275000E-02    9.9999903E-25
  1.4310000E-02    1.0000000E-24
  1.4345000E-02    1.0000011E-24
  1.4380000E-02    1.0000016E-24
  1.4415000E-02    1.0000013E-24
  1.4450000E-02    9.9999963E-25
  1.4485000E-02    9.9999785E-25
  1.4520000E-02    9.9999795E-25
  1.4555000E-02    9.9999963E-25
  1.4590000E-02    1.0000016E-24
  1.4625000E-02    1.0000029E-24
  1.4660000E-02    1.0000021E-24
  1.4695000E-02    9.9999923E-25
  1.4730000E-02    9.9999815E-25
  1.4765000E-02    1.0000005E-24
  1.4800000E-02    1.0000014E-24
  1.4835000E-02    9.9999953E-25
  1.4870000E-02    9.9999953E-25
  1.4905000E-02    1.0000008E-24
  1.4940000E-02    9.9999923E-25
  1.4975000E-02    9.9999834E-25
  1.5010000E-02    1.0000009E-24
  1.5045000E-02    1.0000024E-24
  1.5080000E-02    9.9999992E-25
  1.5115000E-02    9.9999805E-25
  1.5150000E-02    9.9999893E-25
  1.5185000E-02    1.0000010E-24
  1.5220000E-02    1.0000017E-24
  1.5255000E-02    1.0000008E-24
  1.5290000E-02    9.9999982E-25
  1.5325000E-02    1.0000001E-24
  1.5360000E-02    1.0000004E-24
  1.5395000E-02    9.9999972E-25
  1.5430000E-02    9.9999953E-25
  1.5465000E-02    1.0000010E-24
  1.5500000E-02    1.0000024E-24
  1.5535000E-02    1.0000005E-24
  1.5570000E-02    9.9999765E-25
  1.5605000E-02    9.9999923E-25
  1.5640000E-02    1.0000036E-24
  1.5675001E-02    1.0000034E-24
  1.5710000E-02    9.9999716E-25
  1.5745001E-02    9.9999440E-25
  1.5780000E-02    1.0000016E-24
  1.5814999E-02    1.0000075E-24
  1.5850000E-02    9.9999943E-25
  1.5884999E-02    9.9998996E-25
  1.5920000E-02    9.9999963E-25
  1.5954999E-02    1.0000143E-24
  1.5990000E-02    1.0000039E-24
  1.6024999E-02    9.9997921E-25
  1.6060000E-02    9.9998602E-25
  1.6094999E-02    1.0000245E-24
  1.6130000E-02    1.0000306E-24
  1.6164999E-02    9.9997714E-25
  1.6200000E-02    9.9994756E-25
  1.6235000E-02    1.0000139E-24
  1.6270000E-02    1.0000814E-24
  1.6305000E-02    1.0000106E-24
  1.6340001E-02    9.9988889E-25
  1.6375000E-02    9.9994519E-25
  1.6410001E-02    1.0001371E-24
  1.6445000E-02    1.0001267E-24
  1.6480001E-02    9.9985240E-25
  1.6515000E-02    9.9976790E-25
  1.6550001E-02    1.0001253E-24
  1.6585000E-02    1.0003752E-24
  1.6620001E-02    9.9995969E-25
  1.6655000E-02    9.9945156E-25
  1.6690001E-02    9.9985102E-25
  1.6725000E-02    1.0007192E-24
  1.6759999E-02    1.0004798E-24
  1.6795000E-02    9.9916560E-25
  1.6829999E-02    9.9901306E-25
  1.6865000E-02    1.0008116E-24
  1.6899999E-02    1.0016989E-24
  1.6935000E-02    9.9949120E-25
  1.6969999E-02    9.9741118E-25
  1.7005000E-02    9.9974709E-25
  1.7039999E-02    1.0035608E-24
  1.7075000E-02    1.0017000E-24
  1.7109999E-02    9.9561642E-25
  1.7145000E-02    9.9594804E-25
  1.7180000E-02    1.0046590E-24
  1.7215000E-02    1.0074832E-24
  1.7250000E-02    9.9626151E-25
  1.7285001E-02    9.8803892E-25
  1.7320000E-02    1.0007617E-24
  1.7355001E-02    1.0171695E-24
  1.7390000E-02    1.0054309E-24
  1.7425001E-02    9.7785334E-25
  1.7460000E-02    9.8396603E-25
  1.7495001E-02    1.0251405E-24
  1.7530000E-02    1.0321015E-24
  1.7565001E-02    9.7674903E-25
  1.7600000E-02    9.4603148E-25
  1.7635001E-02    1.0123259E-24
  1.7670000E-02    1.0805588E-24
  1.7704999E-02    1.0130638E-24
  1.7740000E-02    8.9170588E-25
  1.7774999E-02    9.4083052E-25
  1.7810000E-02    1.1297675E-24
  1.7844999E-02    1.1319023E-24
  1.7880000E-02    8.6762837E-25
  1.7914999E-02    7.6533510E-25
  1.7950000E-02    1.0972266E-24
  1.7984999E-02    1.3649507E-24
  1.8020000E-02    1.0008591E-24
  1.8054999E-02    4.9012840E-25
  1.8090000E-02    8.0789454E-25
  1.8124999E-02    1.6399900E-24
  1.8160000E-02    1.5073248E-24
  1.8195000E-02    2.9731822E-25
  1.8230001E-02    3.0766873E-26
  1.8265000E-02    1.6161699E-24
  1.8300001E-02    2.5775050E-24
  1.8335000E-02    7.3159774E-25
  1.8370001E-02   -1.2899374E-24
  1.8405000E-02    5.2012015E-25
  1.8440001E-02    3.9948023E-24
  1.8475000E-02    2.7767188E-24
  1.8510001E-02   -2.4840867E-24
  1.8545000E-02   -2.7496678E-24
  1.8580001E-02    4.4196433E-24
  1.8615000E-02    7.4404643E-24
  1.8650001E-02   -1.3269264E-24
  1.8685000E-02   -8.7297746E-24
  1.8719999E-02    5.9991038E-25
  1.8755000E-02    1.4223637E-23
  1.8789999E-02    6.4390953E-24
  1.8825000E-02   -1.5127205E-23
  1.8859999E-02   -1.2410845E-23
  1.8895000E-02    1.8124015E-23
  1.8929999E-02    2.5662093E-23
  1.8965000E-02   -1.3290484E-23
  1.8999999E-02   -3.7927173E-23
  1.9035000E-02    6.1269024E-24
  1.9069999E-02    5.5903720E-23
  1.9105000E-02    1.4256911E-23
  1.9140000E-02   -6.8735817E-23
  1.9175000E-02   -4.2683654E-23
  1.9210000E-02    7.9493166E-23
  1.9245001E-02    8.9078306E-23
  1.9280000E-02   -7.2817592E-23
  1.9315001E-02   -1.4524663E-22
  1.9350000E-02    4.6887049E-23
  1.9385001E-02    2.1518651E-22
  1.9420000E-02    1.7935680E-23
  1.9455001E-02   -2.8112261E-22
  1.9490000E-02   -1.2550215E-22
  1.9525001E-02    3.3350578E-22
  1.9560000E-02    2.9299465E-22
  1.9595001E-02   -3.3741883E-22
  1.9630000E-02   -5.1438972E-22
  1.9664999E-02    2.6431319E-22
  1.9700000E-02    7.8645373E-22
  1.9734999E-02   -6.1906528E-23
  1.9770000E-02   -1.0694893E-21
  1.9804999E-02   -3.0852673E-22
  1.9840000E-02    1.3116587E-21
  1.9874999E-02    8.9391284E-22
  1.9910000E-02   -1.4112128E-21
  1.9944999E-02   -1.7020665E-21
  1.9980000E-02    1.2464990E-21
  2.0014999E-02    2.7125609E-21
  2.0050000E-02   -6.4964304E-22
  2.0085000E-02   -3.8192246E-21
  2.0120000E-02   -5.4400444E-22
  2.0155000E-02    4.8354927E-21
  2.0190001E-02    2.4945901E-21
  2.0225000E-02   -5.4408229E-21
  2.0260001E-02   -5.2742708E-21
  2.0295000E-02    5.2042553E-21
  2.0330001E-02    8.8283767E-21
  2.0365000E-02   -3.5694617E-21
  2.0400001E-02   -1.2858863E-20
  2.0435000E-02   -5.8823584E-23
  2.0470001E-02    1.6766894E-20
  2.0505000E-02    6.2413322E-21
  2.0540001E-02   -1.9546136E-20
  2.0575000E-02   -1.5305215E-20
  2.0609999E-02    1.9784837E-20
  2.0645000E-02    2.7151325E-20
  2.0679999E-02   -1.5681081E-20
  2.0715000E-02   -4.0949838E-20
  2.0749999E-02    5.2426416E-21
  2.0785000E-02    5.4887376E-20
  2.0819999E-02    1.3419148E-20
  2.0855000E-02   -6.5895502E-20
  2.0889999E-02   -4.1542254E-20
  2.0925000E-02    6.9581244E-20
  2.0959999E-02    7.9052662E-20
  2.0995000E-02   -6.0331497E-20
  2.1029999E-02   -1.2369991E-19
  2.1065000E-02    3.1845655E-20
  2.1100000E-02    1.7021914E-19
  2.1135001E-02    2.1918860E-20
  2.1170000E-02   -2.0957800E-19
  2.1205001E-02   -1.0519189E-19
  2.1240000E-02    2.2868041E-19
  2.1275001E-02    2.1834875E-19
  2.1310000E-02   -2.1075304E-19
  2.1345001E-02   -3.5544416E-19
  2.1380000E-02    1.3682199E-19
  2.1415001E-02    5.0170763E-19
  2.1450000E-02    1.1466664E-20
  2.1485001E-02   -6.3143127E-19
  2.1520000E-02   -2.4740626E-19
  2.1555001E-02    7.0714880E-19
  2.1590000E-02    5.7343438E-19
  2.1624999E-02   -6.8074214E-19
  2.1660000E-02   -9.7418943E-19
  2.1694999E-02    4.9761257E-19
  2.1730000E-02    1.4093791E-18
  2.1764999E-02   -1.0484863E-19
  2.1800000E-02   -1.8082935E-18
  2.1834999E-02   -5.3664169E-19
  2.1870000E-02    2.0675743E-18
  2.1904999E-02    1.4361101E-18
  2.1940000E-02   -2.0545804E-18
  2.1974999E-02   -2.5540370E-18
  2.2010000E-02    1.6193261E-18
  2.2045000E-02    3.7834993E-18
  2.2080000E-02   -6.1661377E-19
  2.2115000E-02   -4.9360303E-18
  2.2150001E-02   -1.0613412E-18
  2.2185000E-02    5.7363958E-18
  2.2220001E-02    3.4419552E-18
  2.2255000E-02   -5.8336048E-18
  2.2290001E-02   -6.4240687E-18
  2.2325000E-02    4.8328995E-18
  2.2360001E-02    9.7300511E-18
  2.2395000E-02   -2.3552582E-18
  2.2430001E-02   -1.2872352E-17
  2.2465000E-02   -1.8779620E-18
  2.2500001E-02    1.5143192E-17
  2.2535000E-02    7.9344008E-18
  2.2569999E-02   -1.5648932E-17
  2.2605000E-02   -1.5551866E-17
  2.2639999E-02    1.3396498E-17
  2.2675000E-02    2.4024806E-17
  2.2709999E-02   -7.4455354E-18
  2.2745000E-02   -3.2127407E-17
  2.2779999E-02   -2.8756748E-18
  2.2815000E-02    3.8105468E-17
  2.2849999E-02    1.7705098E-17
  2.2885000E-02   -3.9769117E-17
  2.2919999E-02   -3.6356216E-17
  2.2955000E-02    3.4729956E-17
  2.2990000E-02    5.7069963E-17
  2.3025000E-02   -2.0776332E-17
  2.3060000E-02   -7.6852636E-17
  2.3095001E-02   -3.5980330E-18
  2.3130000E-02    9.1500026E-17
  2.3165001E-02    3.8568338E-17
  2.3200000E-02   -9.5878359E-17
  2.3235001E-02   -8.2347087E-17
  2.3270000E-02    8.4500999E-17
  2.3305001E-02    1.3063089E-16
  2.3340000E-02   -5.2466187E-17
  2.3375001E-02   -1.7634000E-16
  2.3410000E-02   -3.3309614E-18
  2.3445001E-02    2.0977434E-16
  2.3480000E-02    8.2797464E-17
  2.3514999E-02   -2.1936940E-16
  2.3550000E-02   -1.8126280E-16
  2.3584999E-02    1.9319080E-16
  2.3620000E-02    2.8849466E-16
  2.3654999E-02   -1.2102768E-16
  2.3690000E-02   -3.8827593E-16
  2.3724999E-02   -2.8522705E-18
  2.3760000E-02    4.5909043E-16
  2.3794999E-02    1.7674508E-16
  2.3830000E-02   -4.7612130E-16
  2.3864999E-02   -3.8881097E-16
  2.3900000E-02    4.1470934E-16
  2.3934999E-02    6.1529924E-16
  2.3970000E-02   -2.5516598E-16
  2.4005000E-02   -8.2039847E-16
  2.4040001E-02   -1.1482231E-17
  2.4075000E-02    9.5841683E-16
  2.4110001E-02    3.7766399E-16
  2.4145000E-02   -9.7862005E-16
  2.4180001E-02   -8.1419157E-16
  2.4215000E-02    8.3325490E-16
  2.4250001E-02    1.2679101E-15
  2.4285000E-02   -4.8759759E-16
  2.4320001E-02   -1.6627002E-15
  2.4355000E-02   -6.8335515E-17
  2.4390001E-02    1.9059112E-15
  2.4425000E-02    8.0927328E-16
  2.4460001E-02   -1.8995902E-15
  2.4495000E-02   -1.6663518E-15
  2.4529999E-02    1.5575766E-15
  2.4565000E-02    2.5249739E-15
  2.4599999E-02   -8.2591578E-16
  2.4635000E-02   -3.2304185E-15
  2.4669999E-02   -2.9542630E-16
  2.4705000E-02    3.6036606E-15
  2.4739999E-02    1.7342424E-15
  2.4775000E-02   -3.4668650E-15
  2.4809999E-02   -3.3351416E-15
  2.4845000E-02    2.6778246E-15
  2.4879999E-02    4.8613144E-15
  2.4915000E-02   -1.1687176E-15
  2.4950000E-02   -6.0124969E-15
  2.4985000E-02   -1.0164484E-15
  2.5020000E-02    6.4613117E-15
  2.5055001E-02    3.6936748E-15
  2.5090000E-02   -5.9069092E-15
  2.5125001E-02   -6.5290968E-15
  2.5160000E-02    4.1406316E-15
  2.5195001E-02    9.0545552E-15
  2.5230000E-02   -1.1152975E-15
  2.5265001E-02   -1.0715118E-14
  2.5300000E-02   -2.9959845E-15
  2.5335001E-02    1.0946867E-14
  2.5370000E-02    7.7633746E-15
  2.5405001E-02   -9.2826612E-15
  2.5440000E-02   -1.2504225E-14
  2.5474999E-02    5.4703552E-15
  2.5510000E-02    1.6336152E-14
  2.5544999E-02    4.1448636E-16
  2.5580000E-02   -1.8283325E-14
  2.5614999E-02   -7.8815188E-15
  2.5650000E-02    1.7438489E-14
  2.5684999E-02    1.5999475E-14
  2.5720000E-02   -1.3152125E-14
  2.5754999E-02   -2.3437469E-14
  2.5790000E-02    5.2384422E-15
  2.5824999E-02    2.8607542E-14
  2.5860000E-02    5.8580511E-15
  2.5895000E-02   -2.9887185E-14
  2.5930000E-02   -1.8958444E-14
  2.5965000E-02    2.5922815E-14
  2.6000001E-02    3.2164013E-14
  2.6035000E-02   -1.5963469E-14
  2.6070001E-02   -4.3006478E-14
  2.6105000E-02    1.8102005E-16
  2.6140001E-02    4.8757520E-14
  2.6175000E-02    2.0100109E-14
  2.6210001E-02   -4.6868979E-14
  2.6245000E-02   -4.2318949E-14
  2.6280001E-02    3.5517769E-14
  2.6315000E-02    6.2825748E-14
  2.6350001E-02   -1.4141362E-14
  2.6385000E-02   -7.7246891E-14
  2.6419999E-02   -1.6085168E-14
  2.6455000E-02    8.1120691E-14
  2.6489999E-02    5.1994372E-14
  2.6525000E-02   -7.0702985E-14
  2.6559999E-02   -8.8458517E-14
  2.6595000E-02    4.3876215E-14
  2.6629999E-02    1.1881755E-13
  2.6665000E-02   -9.7912805E-16
  2.6699999E-02   -1.3568901E-13
  2.6735000E-02   -5.4577941E-14
  2.6769999E-02    1.3214202E-13
  2.6805000E-02    1.1611472E-13
  2.6839999E-02   -1.0309937E-13
  2.6875000E-02   -1.7403925E-13
  2.6910000E-02    4.6755578E-14
  2.6945001E-02    2.1682799E-13
  2.6980000E-02    3.4230058E-14