 -4.8000002E-03    1.0000000E-24
 -4.7650002E-03    1.0000000E-24
 -4.7300002E-03    1.0000002E-24
 -4.6950001E-03    1.0000002E-24
 -4.6600001E-03    1.0000002E-24
 -4.6250001E-03    1.0000000E-24
 -4.5900000E-03    1.0000000E-24
 -4.5550000E-03    1.0000003E-24
 -4.5200000E-03    1.0000002E-24
 -4.4849999E-03    1.0000000E-24
 -4.4499999E-03    1.0000002E-24
 -4.4149999E-03    1.0000002E-24
 -4.3799998E-03    1.0000000E-24
 -4.3449998E-03    1.0000001E-24
 -4.3100002E-03    1.0000002E-24
 -4.2750002E-03    1.0000002E-24
 -4.2400002E-03    1.0000001E-24
 -4.2050001E-03    1.0000000E-24
 -4.1700001E-03    9.9999982E-25
 -4.1350001E-03    1.0000001E-24
 -4.1000000E-03    1.0000006E-24
 -4.0650000E-03    1.0000004E-24
 -4.0300000E-03    9.9999982E-25
 -3.9949999E-03    9.9999972E-25
 -3.9599999E-03    1.0000002E-24
 -3.9249999E-03    1.0000003E-24
 -3.8900001E-03    1.0000001E-24
 -3.8550000E-03    1.0000001E-24
 -3.8200000E-03    1.0000000E-24
 -3.7849999E-03    1.0000001E-24
 -3.7499999E-03    1.0000002E-24
 -3.7150001E-03    1.0000002E-24
 -3.6800001E-03    1.0000005E-24
 -3.6450000E-03    1.0000004E-24
 -3.6100000E-03    9.9999982E-25
 -3.5750000E-03    9.9999972E-25
 -3.5399999E-03    1.0000004E-24
 -3.5049999E-03    1.0000003E-24
 -3.4700001E-03    9.9999963E-25
 -3.4350001E-03    9.9999982E-25
 -3.4000000E-03    1.0000007E-24
 -3.3650000E-03    1.0000002E-24
 -3.3300000E-03    9.9999982E-25
 -3.2949999E-03    1.0000000E-24
 -3.2599999E-03    1.0000003E-24
 -3.2250001E-03    1.0000000E-24
 -3.1900001E-03    1.0000000E-24
 -3.1550000E-03    1.0000000E-24
 -3.1200000E-03    1.0000001E-24
 -3.0850000E-03    1.0000004E-24
 -3.0499999E-03    1.0000006E-24
 -3.0149999E-03    9.9999972E-25
 -2.9800001E-03    9.9999933E-25
 -2.9450001E-03    1.0000008E-24
 -2.9100000E-03    1.0000011E-24
 -2.8750000E-03    9.9999893E-25
 -2.8400000E-03    1.0000004E-24
 -2.8049999E-03    9.9999657E-25
 -2.7699999E-03    9.9999026E-25
 -2.7350001E-03    1.0000086E-24
 -2.7000001E-03    1.0000201E-24
 -2.6650000E-03    9.9992597E-25
 -2.6300000E-03    9.9998306E-25
 -2.5950000E-03    1.0002919E-24
 -2.5599999E-03    1.0000101E-24
 -2.5249999E-03    9.9952651E-25
 -2.4900001E-03    1.0004355E-24
 -2.4550001E-03    1.0009193E-24
 -2.4200000E-03    9.9979393E-25
 -2.3850000E-03    9.9603244E-25
 -2.3500000E-03    9.9929478E-25
 -2.3149999E-03    9.9876713E-25
 -2.2799999E-03    1.0065809E-24
 -2.2450001E-03    1.0071105E-24
 -2.2100001E-03    9.7693166E-25
 -2.1750000E-03    1.0112740E-24
 -2.1400000E-03    1.0489418E-24
 -2.1050000E-03    9.7047010E-25
 -2.0699999E-03    9.0735866E-25
 -2.0349999E-03    1.1053961E-24
 -2.0000001E-03    1.2751096E-24
 -1.9650001E-03    6.8051609E-25
 -1.9300000E-03    3.4555911E-25
 -1.8950000E-03    2.2443018E-24
 -1.8600000E-03    2.8573842E-24
 -1.8250000E-03   -1.8721359E-24
 -1.7900000E-03   -3.0379895E-24
 -1.7550000E-03    6.0097775E-24
 -1.7199999E-03    5.8896825E-24
 -1.6850000E-03   -7.4966335E-24
 -1.6500000E-03   -3.2230027E-24
 -1.6150000E-03    1.2285160E-23
 -1.5800000E-03    1.7376255E-23
 -1.5450000E-03   -5.6296151E-25
 -1.5100000E-03   -1.6953082E-23
 -1.4750001E-03    3.0075833E-24
 -1.4400000E-03    2.4297676E-23
 -1.4050000E-03   -5.2635904E-24
 -1.3700000E-03   -1.0616376E-22
 -1.3350000E-03   -9.1489563E-23
 -1.3000000E-03    2.2667147E-22
 -1.2650000E-03    1.1130848E-22
 -1.2300001E-03   -5.0613094E-22
 -1.1950000E-03   -2.1164833E-22
 -1.1600000E-03    1.0077570E-21
 -1.1250000E-03    6.3100956E-22
 -1.0900000E-03   -1.8256609E-21
 -1.0550000E-03   -1.3314248E-21
 -1.0200000E-03    2.7781453E-21
 -9.8500005E-04    2.5278985E-21
 -9.5000002E-04   -3.6126681E-21
 -9.1499998E-04   -3.9826032E-21
 -8.8000001E-04    6.0511796E-21
 -8.4499997E-04    8.7080389E-21
 -8.1000000E-04   -6.6502894E-21
 -7.7500002E-04   -1.5147658E-20
 -7.3999999E-04    5.6070385E-21
 -7.0500001E-04    2.6595361E-20
 -6.6999998E-04    1.3413230E-21
 -6.3500000E-04   -3.9531976E-20
 -6.0000003E-04   -1.5706866E-20
 -5.6499999E-04    5.5684739E-20
 -5.3000002E-04    4.2393801E-20
 -4.9499999E-04   -7.2113483E-20
 -4.6000001E-04   -9.6083484E-20
 -4.2500001E-04    8.4773631E-20
 -3.9000000E-04    1.8508737E-19
 -3.5500000E-04   -7.4596750E-20
 -3.1999999E-04   -3.2110262E-19
 -2.8499999E-04    9.3486870E-21
 -2.5000001E-04    5.0370186E-19
 -2.1499999E-04    1.5290335E-19
 -1.8000000E-04   -7.1042407E-19
 -1.4500000E-04   -4.4606180E-19
 -1.1000000E-04    9.0525633E-19
 -7.5000004E-05    9.8385027E-19
 -3.9999999E-05   -9.4562378E-19
 -4.9999999E-06   -1.7815537E-18
  2.9999999E-05    6.8915819E-19
  6.5000000E-05    2.8344562E-18
  9.9999997E-05    6.2859393E-20
  1.3499999E-04   -4.0564234E-18
  1.7000000E-04   -1.7060005E-18
  2.0500000E-04    5.1354094E-18
  2.3999999E-04    4.4364285E-18
  2.7500000E-04   -5.5470877E-18
  3.1000000E-04   -8.6809669E-18
  3.4500001E-04    4.1787126E-18
  3.8000001E-04    1.3728675E-17
  4.1499999E-04   -3.5132796E-19
  4.4999999E-04   -1.9255767E-17
  4.8500000E-04   -7.5810036E-18
  5.2000000E-04    2.3555143E-17
  5.5499998E-04    2.0754425E-17
  5.9000001E-04   -2.3494343E-17
  6.2499999E-04   -3.9274529E-17
  6.6000002E-04    1.5068332E-17
  6.9500000E-04    6.1531021E-17
  7.3000003E-04    7.4922480E-18
  7.6500000E-04   -8.2412785E-17
  7.9999998E-04   -4.9582311E-17
  8.3500001E-04    9.1308147E-17
  8.6999999E-04    1.1165257E-16
  9.0500002E-04   -7.6427928E-17
  9.4000000E-04   -1.9322023E-16
  9.7499997E-04    1.6698082E-17
  1.0100000E-03    2.7886937E-16
  1.0450000E-03    1.0391117E-16
  1.0800000E-03   -3.4598675E-16
  1.1150000E-03   -3.0322019E-16
  1.1500000E-03    3.5089168E-16
  1.1849999E-03    5.8065612E-16
  1.2200000E-03   -2.3701520E-16
  1.2550000E-03   -9.1440690E-16
  1.2900000E-03   -6.6222379E-17
  1.3250000E-03    1.2389472E-15
  1.3600000E-03    6.1986766E-16
  1.3950000E-03   -1.4424197E-15
  1.4299999E-03   -1.4624119E-15
  1.4650000E-03    1.3543394E-15
  1.5000000E-03    2.5654246E-15
  1.5350000E-03   -7.7033459E-16
  1.5700000E-03   -3.8057876E-15
  1.6050000E-03   -5.3542297E-16
  1.6400000E-03    4.9224227E-15
  1.6749999E-03    2.7453759E-15
  1.7100000E-03   -5.4896074E-15
  1.7450000E-03   -5.9003637E-15
  1.7800000E-03    4.9589277E-15
  1.8150000E-03    9.8200578E-15
  1.8500000E-03   -2.6942903E-15
  1.8850000E-03   -1.4022314E-14
  1.9200000E-03   -1.9261953E-15
  1.9550000E-03    1.7606556E-14
  1.9900000E-03    9.3103227E-15
  2.0250001E-03   -1.9255407E-14
  2.0600001E-03   -1.9420395E-14
  2.0949999E-03    1.7285442E-14
  2.1299999E-03    3.1447789E-14
  2.1650000E-03   -9.9477362E-15
  2.2000000E-03   -4.3629353E-14
  2.2350000E-03   -4.1851661E-15
  2.2700001E-03    5.3154455E-14
  2.3050001E-03    2.5669726E-14
  2.3399999E-03   -5.6339248E-14
  2.3749999E-03   -5.3639527E-14
  2.4100000E-03    4.9026311E-14
  2.4450000E-03    8.5349093E-14
  2.4800000E-03   -2.7137951E-14
  2.5150001E-03   -1.1563813E-13
  2.5500001E-03   -1.2271568E-14
  2.5849999E-03    1.3664228E-13
  2.6199999E-03    6.9182819E-14
  2.6550000E-03   -1.3868141E-13
  2.6900000E-03   -1.3902611E-13
  2.7250000E-03    1.1237081E-13
  2.7600001E-03    2.1241872E-13
  2.7950001E-03   -5.0384796E-14
  2.8299999E-03   -2.7480690E-13
  2.8649999E-03   -4.9905253E-14
  2.9000000E-03    3.0736839E-13
  2.9350000E-03    1.8361444E-13
  2.9700000E-03   -2.8889020E-13
  3.0050001E-03   -3.3483942E-13
  3.0400001E-03    2.0070911E-13
  3.0749999E-03    4.7508216E-13
  3.1099999E-03   -3.3931401E-14
  3.1450000E-03   -5.6575578E-13
  3.1800000E-03   -2.0359125E-13
  3.2150000E-03    5.6484575E-13
  3.2500001E-03    4.8312477E-13
  3.2850001E-03   -4.3564458E-13
  3.3199999E-03   -7.5368000E-13
  3.3549999E-03    1.5710773E-13
  3.3900000E-03    9.4328755E-13
  3.4250000E-03    2.6179222E-13
  3.4600000E-03   -9.6865463E-13
  3.4950001E-03   -7.6824343E-13
  3.5300001E-03    7.5725076E-13
  3.5649999E-03    1.2638088E-12
  3.5999999E-03   -2.7208837E-13
  3.6350000E-03   -1.6150517E-12
  3.6700000E-03   -4.6611136E-13
  3.7050000E-03    1.6750080E-12
  3.7400001E-03    1.3622981E-12
  3.7750001E-03   -1.3167974E-12
  3.8099999E-03   -2.2438590E-12
  3.8449999E-03    4.7669805E-13
  3.8800000E-03    2.8825861E-12
  3.9149998E-03    8.1361887E-13
  3.9499998E-03   -3.0300421E-12
  3.9849998E-03   -2.4063319E-12
  4.0199999E-03    2.4632252E-12
  4.0549999E-03    4.0282448E-12
  4.0899999E-03   -1.0437266E-12
  4.1250000E-03   -5.2911091E-12
  4.1600000E-03   -1.2011211E-12
  4.1950000E-03    5.7645559E-12
  4.2300001E-03    4.0360632E-12
  4.2650001E-03   -5.0845348E-12
  4.3000001E-03   -7.0546225E-12
  4.3350002E-03    3.0082891E-12
  4.3700002E-03    9.7085170E-12
  4.4049998E-03    5.4280370E-13
  4.4399998E-03   -1.1303495E-11
  4.4749998E-03   -5.3542925E-12
  4.5099999E-03    1.1104691E-11
  4.5449999E-03    1.0804020E-11
  4.5799999E-03   -8.5958705E-12
  4.6150000E-03   -1.5966324E-11
  4.6500000E-03    3.6543346E-12
  4.6850001E-03    1.9850658E-11
  4.7200001E-03    3.5189811E-12
  4.7550001E-03   -2.1439371E-11
  4.7900002E-03   -1.2385659E-11
  4.8250002E-03    1.9660756E-11
  4.8600002E-03    2.1797309E-11
  4.8949998E-03   -1.3768258E-11
  4.9299998E-03   -3.0015785E-11
  4.9649999E-03    3.8453082E-12
  4.9999999E-03    3.5290583E-11
  5.0349999E-03    9.3209988E-12
  5.0700000E-03   -3.6115746E-11
  5.1050000E-03   -2.4435412E-11
  5.1400000E-03    3.1201642E-11
  5.1750001E-03    3.9568220E-11
  5.2100001E-03   -1.9645613E-11
  5.2450001E-03   -5.1843325E-11
  5.2800002E-03    1.8589290E-12
  5.3150002E-03    5.8174035E-11
  5.3500002E-03    2.0145469E-11
  5.3849998E-03   -5.6204069E-11
  5.4199998E-03   -4.3167674E-11
  5.4549999E-03    4.4753853E-11
  5.4899999E-03    6.3160359E-11
  5.5249999E-03   -2.4268931E-11
  5.5600000E-03   -7.5549851E-11
  5.5950000E-03   -2.0253382E-12
  5.6300000E-03    7.7485143E-11
  5.6650001E-03    2.9449786E-11
  5.7000001E-03   -6.8595879E-11
  5.7350001E-03   -5.3573798E-11
  5.7700002E-03    5.0134466E-11
  5.8050002E-03    7.0350864E-11
  5.8400002E-03   -2.4911457E-11
  5.8749998E-03   -7.6092077E-11
  5.9099998E-03   -1.2554888E-12
  5.9449999E-03    7.0598999E-11
  5.9799999E-03    2.1706420E-11
  6.0149999E-03   -5.9052582E-11
  6.0500000E-03   -3.4175707E-11
  6.0850000E-03    4.8416424E-11
  6.1200000E-03    4.3569537E-11
  6.1550001E-03   -3.8522727E-11
  6.1900001E-03   -5.1907343E-11
  6.2250001E-03    2.8058444E-11
  6.2600002E-03    5.8545044E-11
  6.2950002E-03   -1.8477470E-11
  6.3299998E-03   -6.5623527E-11
  6.3649998E-03    9.3921832E-12
  6.3999998E-03    7.6588347E-11
  6.4349999E-03    4.4744681E-12
  6.4699999E-03   -9.0189835E-11
  6.5049999E-03   -2.9313614E-11
  6.5400000E-03    9.7632132E-11
  6.5750000E-03    6.2878480E-11
  6.6100000E-03   -9.2311332E-11
  6.6450001E-03   -9.8056611E-11
  6.6800001E-03    7.3301441E-11
  6.7150001E-03    1.2814244E-10
  6.7500002E-03   -4.4703397E-11
  6.7850002E-03   -1.5376125E-10
  6.8199998E-03    1.4775600E-12
  6.8549998E-03    1.6225089E-10
  6.8899998E-03    4.3828836E-11
  6.9249999E-03   -1.5939901E-10
  6.9599999E-03   -9.5950213E-11
  6.9949999E-03    1.3247635E-10
  7.0300000E-03    1.3801534E-10
  7.0650000E-03   -8.9172426E-11
  7.1000000E-03   -1.6598162E-10
  7.1350001E-03    3.0921439E-11
  7.1700001E-03    1.6639644E-10
  7.2050001E-03    1.9958722E-11
  7.2400002E-03   -1.5683116E-10
  7.2750002E-03   -7.6186848E-11
  7.3099998E-03    1.1583556E-10
  7.3449998E-03    9.9894683E-11
  7.3799998E-03   -8.9453021E-11
  7.4149999E-03   -1.3333566E-10
  7.4499999E-03    4.0088256E-11
  7.4850000E-03    1.3575334E-10
  7.5200000E-03   -1.5897587E-11
  7.5550000E-03   -1.6009680E-10
  7.5900001E-03   -3.7903129E-11
  7.6250001E-03    1.4992417E-10
  7.6600001E-03    6.2619361E-11
  7.6950002E-03   -1.6812363E-10
  7.7300002E-03   -1.2952345E-10
  7.7650002E-03    1.3246917E-10
  7.7999998E-03    1.4538408E-10
  7.8349998E-03   -1.5336599E-10
  7.8699999E-03   -2.5509672E-10
  7.9049999E-03    3.8536896E-11
  7.9399999E-03    2.3538271E-10
  7.9750000E-03    7.9040491E-13
  8.0100000E-03   -2.5500840E-10
  8.0450000E-03   -1.0326661E-10
  8.0800001E-03    1.6945928E-10
  8.1150001E-03    9.9076490E-11
  8.1500001E-03   -1.6973656E-10
  8.1850002E-03   -2.0162701E-10
  8.2200002E-03   -2.7624177E-12
  8.2550002E-03    9.0599667E-11
  8.2900003E-03   -7.9499783E-12
  8.3250003E-03   -1.0468752E-10
  8.3600003E-03   -9.8627342E-11
  8.3950004E-03   -5.6192582E-11
  8.4300004E-03   -3.3433950E-11
  8.4650004E-03   -3.9889373E-11
  8.5000005E-03   -8.1651137E-11
  8.5349996E-03   -1.1915298E-10
  8.5699996E-03   -8.3011945E-11
  8.6049996E-03    9.1530334E-12
  8.6399997E-03    5.1244117E-11
  8.6749997E-03   -1.5410135E-11
  8.7099997E-03   -1.3681578E-10
  8.7449998E-03   -2.0161078E-10
  8.7799998E-03   -1.4059343E-10
  8.8149998E-03   -3.0449150E-11
  8.8499999E-03   -4.6064635E-11
  8.8849999E-03   -1.8736414E-10
  8.9199999E-03   -1.9667305E-10
  8.9550000E-03    3.0143488E-11
  8.9900000E-03    1.6773469E-10
  9.0250000E-03   -6.0016735E-11
  9.0600001E-03   -3.6104947E-10
  9.0950001E-03   -2.8001299E-10
  9.1300001E-03    6.5366962E-11
  9.1650002E-03    1.5195267E-10
  9.2000002E-03   -1.2609978E-10
  9.2350002E-03   -3.1005007E-10
  9.2700003E-03   -1.1844763E-10
  9.3050003E-03    1.3068777E-10
  9.3400003E-03    4.3540574E-11
  9.3750004E-03   -2.7095859E-10
  9.4100004E-03   -3.9520090E-10
  9.4450004E-03   -1.5352893E-10
  9.4799995E-03    1.8953115E-10
  9.5149996E-03    2.1981016E-10
  9.5499996E-03   -1.0723866E-10
  9.5849996E-03   -3.2624692E-10
  9.6199997E-03   -9.0397440E-11
  9.6549997E-03    2.4606919E-10
  9.6899997E-03    1.2948147E-10
  9.7249998E-03   -2.7339600E-10
  9.7599998E-03   -2.8899094E-10
  9.7949998E-03    1.3034783E-10
  9.8299999E-03    2.7908167E-10
  9.8649999E-03   -6.6455418E-11
  9.8999999E-03   -2.5370495E-10
  9.9350000E-03    6.1583694E-12
  9.9700000E-03    1.5833382E-10
  1.0005000E-02   -1.8786996E-11
  1.0040000E-02   -3.4879058E-11
  1.0075000E-02    2.3047242E-10
  1.0110000E-02    3.1380437E-10
  1.0145000E-02    1.1551014E-10
  1.0180000E-02    9.0068456E-12
  1.0215000E-02    9.5082844E-11
  1.0250000E-02    1.4963995E-10
  1.0285000E-02    1.3185396E-10
  1.0320000E-02    1.2486451E-10
  1.0355000E-02    5.0298647E-11
  1.0390000E-02   -4.1316724E-12
  1.0425000E-02    2.7303354E-10
  1.0460000E-02    5.9419486E-10
  1.0495000E-02    2.8354641E-10
  1.0530000E-02   -2.1522729E-10
  1.0565000E-02    1.5437769E-10
  1.0600000E-02    8.5130547E-10
  1.0635000E-02    5.1177362E-10
  1.0670000E-02   -3.1358591E-10
  1.0705000E-02   -9.0448954E-11
  1.0740000E-02    7.2351247E-10
  1.0775000E-02    6.1430505E-10
  1.0810000E-02   -3.6806280E-11
  1.0845000E-02    1.6937501E-10
  1.0880000E-02    8.0411006E-10
  1.0915000E-02    4.8543014E-10
  1.0950000E-02   -2.9463576E-10
  1.0985000E-02   -1.1840427E-10
  1.1020000E-02    5.5736932E-10
  1.1055000E-02    5.1508858E-10
  1.1090000E-02    2.7208602E-10
  1.1125000E-02    6.1221689E-10
  1.1160000E-02    6.9653705E-10
  1.1195000E-02    3.9179743E-11
  1.1230000E-02   -2.1267572E-10
  1.1265000E-02    3.7258796E-10
  1.1300000E-02    5.5840454E-10
  1.1335000E-02   -1.7185466E-10
  1.1370000E-02   -5.6733573E-10
  1.1405000E-02    2.2629444E-10
  1.1440000E-02    1.0794375E-09
  1.1475000E-02    6.3494476E-10
  1.1510000E-02   -4.1717049E-10
  1.1545000E-02   -5.0878085E-10
  1.1580000E-02    2.6594499E-10
  1.1615000E-02    6.3824535E-10
  1.1650000E-02    1.9038553E-10
  1.1685000E-02   -4.5291043E-10
  1.1720000E-02   -4.9359100E-10
  1.1755000E-02    2.1021861E-10
  1.1790000E-02    6.5809486E-10
  1.1825000E-02    1.7213309E-11
  1.1860000E-02   -8.4375967E-10
  1.1895000E-02   -6.9837519E-10
  1.1930000E-02    1.3342168E-10
  1.1965000E-02    5.0793297E-10
  1.2000000E-02   -4.7850737E-11
  1.2035000E-02   -9.3945840E-10
  1.2070000E-02   -1.0093539E-09
  1.2105000E-02   -1.9923611E-11
  1.2140000E-02    6.7830908E-10
  1.2175000E-02    5.0803667E-11
  1.2210000E-02   -9.7454889E-10
  1.2245000E-02   -8.6853802E-10
  1.2280000E-02    1.6619350E-10
  1.2315000E-02    2.9873781E-10
  1.2350000E-02   -1.1295380E-09
  1.2385000E-02   -2.1519888E-09
  1.2420000E-02   -1.0089767E-09
  1.2455000E-02    8.8609847E-10
  1.2490000E-02    8.2526525E-10
  1.2525000E-02   -1.0775397E-09
  1.2560000E-02   -1.7767947E-09
  1.2595000E-02   -9.6506754E-11
  1.2630000E-02    9.2706226E-10
  1.2665000E-02   -5.7707961E-10
  1.2700000E-02   -1.5635840E-09
  1.2735000E-02   -2.7498281E-10
  1.2770000E-02    1.3927373E-10
  1.2805000E-02   -1.3023526E-09
  1.2840000E-02   -1.4480239E-09
  1.2875000E-02    8.5603524E-11
  1.2910000E-02    5.3150168E-10
  1.2945000E-02   -4.5422929E-10
  1.2980000E-02   -7.6079343E-10
  1.3015000E-02    1.8741836E-10
  1.3050000E-02    7.5082418E-10
  1.3085000E-02   -2.6767069E-10
  1.3120000E-02   -1.3636824E-09
  1.3155000E-02   -1.1605750E-09
  1.3190000E-02   -6.9926842E-10
  1.3225000E-02   -4.6953724E-10
  1.3260000E-02    1.2306417E-10
  1.3295000E-02    2.0887289E-10
  1.3330000E-02   -2.5573227E-10
  1.3365000E-02    1.3132766E-10
  1.3400000E-02    2.0588503E-10
  1.3435000E-02   -4.3733986E-10
  1.3470000E-02    7.4353673E-10
  1.3505000E-02    1.6877632E-09
  1.3540000E-02   -7.7810319E-10
  1.3575000E-02   -2.0872954E-09
  1.3610000E-02    1.7029221E-13
  1.3645000E-02    4.0518955E-10
  1.3680000E-02   -8.6362101E-10
  1.3715000E-02    5.7960986E-10
  1.3750000E-02    2.1762765E-09
  1.3785000E-02    5.8788391E-10
  1.3820000E-02   -1.9341373E-09
  1.3855000E-02   -1.9538635E-09
  1.3890000E-02    9.4752817E-10
  1.3925000E-02    2.4291420E-09
  1.3960000E-02   -5.7527100E-10
  1.3995000E-02   -1.8247654E-09
  1.4030000E-02    1.6319605E-09
  1.4065000E-02    1.8876740E-09
  1.4100000E-02   -2.0146993E-09
  1.4135000E-02   -1.5467613E-09
  1.4170000E-02    2.3290849E-09
  1.4205000E-02    1.1841700E-09
  1.4240000E-02   -1.5413465E-09
  1.4275000E-02    1.9744130E-10
  1.4310000E-02    1.5902013E-09
  1.4345000E-02   -1.3821598E-09
  1.4380000E-02   -2.3085009E-09
  1.4415000E-02    5.9014055E-10
  1.4450000E-02    2.3724489E-09
  1.4485000E-02    1.4788323E-09
  1.4520000E-02   -2.0740913E-10
  1.4555000E-02   -4.9913695E-10
  1.4590000E-02    1.4982993E-09
  1.4625000E-02    1.1987900E-09
  1.4660000E-02   -1.8270864E-09
  1.4695000E-02   -2.4943079E-09
  1.4730000E-02    3.4157790E-10
  1.4765000E-02    2.2402433E-09
  1.4800000E-02    9.0255836E-10
  1.4835000E-02   -1.5027670E-09
  1.4870000E-02   -2.2539406E-09
  1.4905000E-02   -8.1989088E-10
  1.4940000E-02    1.5229454E-09
  1.4975000E-02    1.6544139E-09
  1.5010000E-02   -5.7885918E-10
  1.5045000E-02   -1.6422008E-09
  1.5080000E-02    1.5427312E-10
  1.5115000E-02    1.4642085E-09
  1.5150000E-02    1.0084287E-09
  1.5185000E-02    3.0134997E-10
  1.5220000E-02   -4.1716786E-10
  1.5255000E-02   -2.8038852E-10
  1.5290000E-02    1.6316366E-09
  1.5325000E-02    2.1963780E-09
  1.5360000E-02   -8.6419893E-10
  1.5395000E-02   -3.6155920E-09
  1.5430000E-02   -1.6897204E-09
  1.5465000E-02    3.3205443E-09
  1.5500000E-02    4.6599795E-09
  1.5535000E-02   -6.1950511E-10
  1.5570000E-02   -5.1162421E-09
  1.5605000E-02   -2.1069488E-09
  1.5640000E-02    2.4820572E-09
  1.5675001E-02    2.2635593E-09
  1.5710000E-02    4.8136467E-10
  1.5745001E-02    2.3051151E-10
  1.5780000E-02   -8.4562934E-10
  1.5814999E-02   -2.2008653E-09
  1.5850000E-02   -1.0557524E-10
  1.5884999E-02    3.1564868E-09
  1.5920000E-02    1.1136561E-09
  1.5954999E-02   -3.8402868E-09
  1.5990000E-02   -3.1738023E-09
  1.6024999E-02    1.6856188E-09
  1.6060000E-02    3.0798546E-09
  1.6094999E-02    2.5408950E-09
  1.6130000E-02    3.0738083E-09
  1.6164999E-02    8.1135637E-10
  1.6200000E-02   -3.3775078E-09
  1.6235000E-02   -2.2618629E-09
  1.6270000E-02    3.8438612E-09
  1.6305000E-02    4.5209565E-09
  1.6340001E-02   -1.4224666E-09
  1.6375000E-02   -2.8355556E-09
  1.6410001E-02    2.0113913E-09
  1.6445000E-02    2.3066384E-09
  1.6480001E-02   -1.6249219E-09
  1.6515000E-02   -3.3491405E-09
  1.6550001E-02   -4.3097983E-09
  1.6585000E-02   -4.7936957E-09
  1.6620001E-02    1.3886124E-09
  1.6655000E-02    1.0508443E-08
  1.6690001E-02    7.2776385E-09
  1.6725000E-02   -5.6225518E-09
  1.6759999E-02   -9.8276178E-09
  1.6795000E-02   -1.8266632E-09
  1.6829999E-02    4.8544884E-09
  1.6865000E-02    5.7326415E-09
  1.6899999E-02    4.7158411E-09
  1.6935000E-02    1.6814651E-09
  1.6969999E-02   -1.8960111E-09
  1.7005000E-02   -3.6146071E-09
  1.7039999E-02   -4.1393755E-09
  1.7075000E-02   -3.4460506E-09
  1.7109999E-02    6.6381442E-11
  1.7145000E-02    2.0152000E-09
  1.7180000E-02   -1.1223521E-09
  1.7215000E-02   -3.4727599E-09
  1.7250000E-02    5.0310744E-10
  1.7285001E-02    5.4989262E-09
  1.7320000E-02    4.3533235E-09
  1.7355001E-02   -1.9318602E-09
  1.7390000E-02   -6.7657302E-09
  1.7425001E-02   -4.8811071E-09
  1.7460000E-02    2.4132726E-10
  1.7495001E-02    1.5139641E-09
  1.7530000E-02   -6.0068278E-10
  1.7565001E-02   -9.1226382E-10
  1.7600000E-02    6.0645206E-10
  1.7635001E-02    1.6789693E-09
  1.7670000E-02    2.4069375E-09
  1.7704999E-02    1.1085971E-09
  1.7740000E-02   -3.3212506E-09
  1.7774999E-02   -5.5151643E-09
  1.7810000E-02   -2.9764697E-09
  1.7844999E-02   -1.5797689E-09
  1.7880000E-02   -2.4714022E-09
  1.7914999E-02   -7.7963414E-10
  1.7950000E-02    1.7864158E-09
  1.7984999E-02    1.6757783E-09
  1.8020000E-02   -6.6267342E-10
  1.8054999E-02   -4.7838320E-09
  1.8090000E-02   -6.4742154E-09
  1.8124999E-02   -5.0893695E-10
  1.8160000E-02    5.3508673E-09
  1.8195000E-02    1.2909670E-09
  1.8230001E-02   -6.1186736E-09
  1.8265000E-02   -6.2513066E-09
  1.8300001E-02   -1.3389176E-09
  1.8335000E-02    1.8364151E-09
  1.8370001E-02    2.8912350E-09
  1.8405000E-02    1.9620230E-09
  1.8440001E-02   -3.9549306E-09
  1.8475000E-02   -1.0030014E-08
  1.8510001E-02   -6.2381571E-09
  1.8545000E-02    3.3232355E-09
  1.8580001E-02    6.9322454E-09
  1.8615000E-02    4.5043111E-09
  1.8650001E-02   -8.4165080E-10
  1.8685000E-02   -8.0361922E-09
  1.8719999E-02   -8.5586924E-09
  1.8755000E-02    4.8224102E-11
  1.8789999E-02    5.3861684E-09
  1.8825000E-02    1.9855688E-09
  1.8859999E-02   -3.4467134E-09
  1.8895000E-02   -5.4410418E-09
  1.8929999E-02   -9.7132591E-10
  1.8965000E-02    6.8586195E-09
  1.8999999E-02    7.7972908E-09
  1.9035000E-02   -3.4687121E-11
  1.9069999E-02   -7.5819582E-09
  1.9105000E-02   -7.9748963E-09
  1.9140000E-02   -1.0629772E-09
  1.9175000E-02    6.7562587E-09
  1.9210000E-02    7.2986923E-09
  1.9245001E-02    1.0927967E-09
  1.9280000E-02   -4.1268322E-09
  1.9315001E-02   -4.2966342E-09
  1.9350000E-02   -1.5419590E-09
  1.9385001E-02    1.8818616E-09
  1.9420000E-02    6.0373648E-09
  1.9455001E-02    6.7736852E-09
  1.9490000E-02   -6.7614636E-10
  1.9525001E-02   -7.1399229E-09
  1.9560000E-02   -1.8198917E-09
  1.9595001E-02    5.7622076E-09
  1.9630000E-02    3.7514045E-09
  1.9664999E-02   -9.5637731E-10
  1.9700000E-02    4.6077556E-10
  1.9734999E-02    4.3506891E-09
  1.9770000E-02    3.8153867E-09
  1.9804999E-02   -9.5518526E-10
  1.9840000E-02   -2.0738309E-09
  1.9874999E-02    3.6650623E-09
  1.9910000E-02    7.2951942E-09
  1.9944999E-02    3.3199437E-09
  1.9980000E-02   -1.2981642E-09
  2.0014999E-02   -1.4010304E-09
  2.0050000E-02   -3.4864592E-10
  2.0085000E-02   -4.7534454E-10
  2.0120000E-02    7.8722068E-10
  2.0155000E-02    3.2346659E-09
  2.0190001E-02    2.4666491E-09
  2.0225000E-02   -1.4616666E-10
  2.0260001E-02   -8.8454810E-10
  2.0295000E-02   -3.2240213E-09
  2.0330001E-02   -4.7766506E-09
  2.0365000E-02    2.4592932E-09
  2.0400001E-02    8.7234051E-09
  2.0435000E-02    3.3609486E-09
  2.0470001E-02   -7.9705309E-10
  2.0505000E-02    1.6237219E-09
  2.0540001E-02   -2.0815454E-09
  2.0575000E-02   -7.0014443E-09
  2.0609999E-02   -6.4962347E-10
  2.0645000E-02    6.1058132E-09
  2.0679999E-02    2.2701172E-09
  2.0715000E-02   -2.7071505E-09
  2.0749999E-02   -1.8659541E-09
  2.0785000E-02   -3.3606012E-10
  2.0819999E-02   -4.0213802E-10
  2.0855000E-02   -3.5235001E-10
  2.0889999E-02   -1.4054887E-09
  2.0925000E-02   -2.6658353E-09
  2.0959999E-02   -4.8436738E-10
  2.0995000E-02    1.7181799E-09
  2.1029999E-02   -6.8213929E-10
  2.1065000E-02   -2.7398477E-09
  2.1100000E-02   -1.8474225E-09
  2.1135001E-02   -1.9378461E-09
  2.1170000E-02   -4.3985204E-10
  2.1205001E-02    3.2844691E-09
  2.1240000E-02    1.5360418E-09
  2.1275001E-02   -3.3221912E-09
  2.1310000E-02   -3.4543655E-09
  2.1345001E-02   -2.2220366E-09
  2.1380000E-02   -1.8761768E-09
  2.1415001E-02    3.5228148E-10
  2.1450000E-02    9.4900843E-10
  2.1485001E-02   -8.0334067E-10
  2.1520000E-02   -2.9439967E-10
  2.1555001E-02    1.1151849E-11
  2.1590000E-02   -1.8268791E-09
  2.1624999E-02   -4.9949550E-10
  2.1660000E-02    3.9523393E-09
  2.1694999E-02    5.3486624E-09
  2.1730000E-02    2.1704711E-09
  2.1764999E-02   -2.0516577E-09
  2.1800000E-02   -4.3803405E-09
  2.1834999E-02   -4.6126782E-09
  2.1870000E-02   -3.0462670E-09
  2.1904999E-02   -2.2877043E-10
  2.1940000E-02    1.2951920E-09
  2.1974999E-02    1.6033913E-09
  2.2010000E-02    3.1466871E-09
  2.2045000E-02    3.1164398E-09
  2.2080000E-02   -3.2879494E-10
  2.2115000E-02   -1.8396964E-09
  2.2150001E-02   -4.3248346E-11
  2.2185000E-02    1.1502715E-09
  2.2220001E-02    1.9576620E-09
  2.2255000E-02    2.9076066E-09
  2.2290001E-02    2.1898880E-09
  2.2325000E-02    9.5884956E-10
  2.2360001E-02    4.0663006E-10
  2.2395000E-02   -5.9044630E-10
  2.2430001E-02   -9.9237896E-10
  2.2465000E-02    7.2867951E-10
  2.2500001E-02    2.0865802E-09
  2.2535000E-02   -1.6392951E-10
  2.2569999E-02   -3.6353895E-09
  2.2605000E-02   -2.4515543E-09
  2.2639999E-02    3.0375542E-09
  2.2675000E-02    6.1549121E-09
  2.2709999E-02    3.9412811E-09
  2.2745000E-02   -6.1216454E-10
  2.2779999E-02   -3.4873184E-09
  2.2815000E-02   -2.9395621E-09
  2.2849999E-02   -3.1261579E-10
  2.2885000E-02    2.9591498E-09
  2.2919999E-02    5.2970748E-09
  2.2955000E-02    3.4816532E-09
  2.2990000E-02   -2.1756244E-10
  2.3025000E-02   -2.6331068E-11
  2.3060000E-02    1.2696069E-09
  2.3095001E-02    2.1059013E-10
  2.3130000E-02    1.2394671E-09
  2.3165001E-02    3.5367451E-09
  2.3200000E-02    1.6141655E-09
  2.3235001E-02   -1.7097420E-09
  2.3270000E-02   -2.2506514E-09
  2.3305001E-02   -8.4858270E-10
  2.3340000E-02    1.5784886E-09
  2.3375001E-02    2.4892464E-09
  2.3410000E-02    4.7178983E-10
  2.3445001E-02   -5.8397115E-10
  2.3480000E-02   -4.2809373E-10
  2.3514999E-02   -1.9081974E-09
  2.3550000E-02   -1.3852710E-09
  2.3584999E-02    3.0985852E-09
  2.3620000E-02    5.2252696E-09
  2.3654999E-02    2.4851765E-09
  2.3690000E-02   -7.7539508E-10
  2.3724999E-02   -3.0663201E-09
  2.3760000E-02   -4.3878434E-09
  2.3794999E-02   -2.1105562E-09
  2.3830000E-02    1.4631398E-09
  2.3864999E-02    6.2340688E-10
  2.3900000E-02   -9.1052682E-10
  2.3934999E-02    1.8768969E-09
  2.3970000E-02    2.5276834E-09
  2.4005000E-02   -1.1436943E-09
  2.4040001E-02   -1.9953514E-09
  2.4075000E-02   -2.3901348E-09
  2.4110001E-02   -5.2787077E-09
  2.4145000E-02   -2.0696727E-09
  2.4180001E-02    4.2610031E-09
  2.4215000E-02    6.8894912E-10
  2.4250001E-02   -6.4794357E-09
  2.4285000E-02   -4.1131614E-09
  2.4320001E-02    3.1028791E-09
  2.4355000E-02    5.1923732E-09
  2.4390001E-02    8.7988511E-10
  2.4425000E-02   -4.1450994E-09
  2.4460001E-02   -2.9934986E-09
  2.4495000E-02    1.0149224E-09
  2.4529999E-02   -1.2023360E-09
  2.4565000E-02   -6.0826464E-09
  2.4599999E-02   -4.7817097E-09
  2.4635000E-02   -2.5327399E-10
  2.4669999E-02    1.4866308E-09
  2.4705000E-02    1.5727591E-09
  2.4739999E-02    1.1483489E-09
  2.4775000E-02   -6.3927363E-10
  2.4809999E-02   -1.1973549E-09
  2.4845000E-02    5.5908683E-10
  2.4879999E-02   -3.9134776E-10
  2.4915000E-02   -4.1460422E-09
  2.4950000E-02   -3.0068961E-09
  2.4985000E-02    2.5681943E-09
  2.5020000E-02    4.2816057E-09
  2.5055001E-02    1.4543308E-09
  2.5090000E-02   -2.4207256E-09
  2.5125001E-02   -5.7458704E-09
  2.5160000E-02   -4.0870729E-09
  2.5195001E-02    1.9927429E-09
  2.5230000E-02    3.9387569E-09
  2.5265001E-02    1.4809812E-09
  2.5300000E-02    6.9634370E-10
  2.5335001E-02   -9.2529893E-11
  2.5370000E-02   -2.3835489E-09
  2.5405001E-02   -1.6864916E-09
  2.5440000E-02    1.4218794E-09
  2.5474999E-02    2.2783702E-09
  2.5510000E-02    1.4644013E-09
  2.5544999E-02    1.2413832E-09
  2.5580000E-02    9.4279329E-10
  2.5614999E-02    1.3531145E-09
  2.5650000E-02    3.8615768E-09
  2.5684999E-02    4.0739487E-09
  2.5720000E-02   -1.3488979E-09
  2.5754999E-02   -4.9220388E-09
  2.5790000E-02   -7.1636985E-10
  2.5824999E-02    4.3953925E-09
  2.5860000E-02    4.6731810E-09
  2.5895000E-02    2.5023599E-09
  2.5930000E-02   -9.2016716E-10
  2.5965000E-02   -3.4022425E-09
  2.6000001E-02   -6.8019662E-10
  2.6035000E-02    3.5878214E-09
  2.6070001E-02    3.4594838E-09
  2.6105000E-02    1.1969840E-09
  2.6140001E-02   -5.9467659E-10
  2.6175000E-02   -2.9248086E-09
  2.6210001E-02   -3.8197587E-09
  2.6245000E-02   -1.7696031E-09
  2.6280001E-02    5.9845251E-10
  2.6315000E-02    2.5189273E-09
  2.6350001E-02    3.7535526E-09
  2.6385000E-02    7.9449353E-10
  2.6419999E-02   -4.4619632E-09
  2.6455000E-02   -4.0541570E-09
  2.6489999E-02    1.3887608E-09
  2.6525000E-02    4.2282124E-09
  2.6559999E-02    3.5702654E-09
  2.6595000E-02    1.7144838E-09
  2.6629999E-02   -7.2485085E-10
  2.6665000E-02   -9.9371611E-10
  2.6699999E-02   -3.9040896E-10
  2.6735000E-02   -2.7299414E-09
  2.6769999E-02   -2.7644389E-09
  2.6805000E-02    1.3684621E-09
  2.6839999E-02    6.4508865E-10
  2.6875000E-02   -3.2441130E-09
  2.6910000E-02   -8.3290574E-10
  2.6945001E-02    3.6359620E-09
  2.6980000E-02    3.0724046E-09