 -4.8000002E-03    1.0000000E-24
 -4.7650002E-03    1.0000002E-24
 -4.7300002E-03    1.0000001E-24
 -4.6950001E-03    1.0000002E-24
 -4.6600001E-03    1.0000002E-24
 -4.6250001E-03    1.0000000E-24
 -4.5900000E-03    1.0000000E-24
 -4.5550000E-03    1.0000002E-24
 -4.5200000E-03    1.0000002E-24
 -4.4849999E-03    9.9999982E-25
 -4.4499999E-03    1.0000001E-24
 -4.4149999E-03    1.0000005E-24
 -4.3799998E-03    1.0000006E-24
 -4.3449998E-03    9.9999992E-25
 -4.3100002E-03    9.9999982E-25
 -4.2750002E-03    1.0000007E-24
 -4.2400002E-03    1.0000006E-24
 -4.2050001E-03    9.9999972E-25
 -4.1700001E-03    9.9999963E-25
 -4.1350001E-03    1.0000003E-24
 -4.1000000E-03    1.0000006E-24
 -4.0650000E-03    1.0000002E-24
 -4.0300000E-03    9.9999982E-25
 -3.9949999E-03    9.9999972E-25
 -3.9599999E-03    1.0000001E-24
 -3.9249999E-03    1.0000004E-24
 -3.8900001E-03    1.0000001E-24
 -3.8550000E-03    9.9999992E-25
 -3.8200000E-03    1.0000004E-24
 -3.7849999E-03    1.0000006E-24
 -3.7499999E-03    9.9999982E-25
 -3.7150001E-03    9.9999943E-25
 -3.6800001E-03    1.0000003E-24
 -3.6450000E-03    1.0000008E-24
 -3.6100000E-03    9.9999992E-25
 -3.5750000E-03    9.9999963E-25
 -3.5399999E-03    1.0000006E-24
 -3.5049999E-03    1.0000010E-24
 -3.4700001E-03    9.9999982E-25
 -3.4350001E-03    9.9999923E-25
 -3.4000000E-03    1.0000000E-24
 -3.3650000E-03    1.0000005E-24
 -3.3300000E-03    1.0000000E-24
 -3.2949999E-03    1.0000000E-24
 -3.2599999E-03    1.0000007E-24
 -3.2250001E-03    1.0000004E-24
 -3.1900001E-03    9.9999953E-25
 -3.1550000E-03    9.9999963E-25
 -3.1200000E-03    1.0000005E-24
 -3.0850000E-03    1.0000006E-24
 -3.0499999E-03    1.0000003E-24
 -3.0149999E-03    1.0000006E-24
 -2.9800001E-03    1.0000007E-24
 -2.9450001E-03    9.9999953E-25
 -2.9100000E-03    9.9999953E-25
 -2.8750000E-03    1.0000009E-24
 -2.8400000E-03    1.0000002E-24
 -2.8049999E-03    9.9999903E-25
 -2.7699999E-03    1.0000006E-24
 -2.7350001E-03    1.0000014E-24
 -2.7000001E-03    9.9999943E-25
 -2.6650000E-03    9.9999913E-25
 -2.6300000E-03    1.0000008E-24
 -2.5950000E-03    1.0000005E-24
 -2.5599999E-03    9.9999903E-25
 -2.5249999E-03    9.9999992E-25
 -2.4900001E-03    1.0000007E-24
 -2.4550001E-03    1.0000005E-24
 -2.4200000E-03    1.0000000E-24
 -2.3850000E-03    9.9999972E-25
 -2.3500000E-03    1.0000001E-24
 -2.3149999E-03    1.0000005E-24
 -2.2799999E-03    1.0000000E-24
 -2.2450001E-03    1.0000002E-24
 -2.2100001E-03    1.0000004E-24
 -2.1750000E-03    9.9999992E-25
 -2.1400000E-03    1.0000001E-24
 -2.1050000E-03    1.0000011E-24
 -2.0699999E-03    9.9999982E-25
 -2.0349999E-03    9.9999874E-25
 -2.0000001E-03    1.0000003E-24
 -1.9650001E-03    1.0000009E-24
 -1.9300000E-03    9.9999933E-25
 -1.8950000E-03    9.9999963E-25
 -1.8600000E-03    1.0000014E-24
 -1.8250000E-03    1.0000004E-24
 -1.7900000E-03    9.9999864E-25
 -1.7550000E-03    1.0000000E-24
 -1.7199999E-03    1.0000011E-24
 -1.6850000E-03    1.0000003E-24
 -1.6500000E-03    1.0000002E-24
 -1.6150000E-03    1.0000003E-24
 -1.5800000E-03    9.9999943E-25
 -1.5450000E-03    9.9999933E-25
 -1.5100000E-03    1.0000003E-24
 -1.4750001E-03    1.0000012E-24
 -1.4400000E-03    1.0000004E-24
 -1.4050000E-03    9.9999963E-25
 -1.3700000E-03    1.0000002E-24
 -1.3350000E-03    1.0000003E-24
 -1.3000000E-03    9.9999923E-25
 -1.2650000E-03    9.9999903E-25
 -1.2300001E-03    1.0000011E-24
 -1.1950000E-03    1.0000016E-24
 -1.1600000E-03    9.9999943E-25
 -1.1250000E-03    9.9999943E-25
 -1.0900000E-03    1.0000015E-24
 -1.0550000E-03    1.0000004E-24
 -1.0200000E-03    9.9999864E-25
 -9.8500005E-04    1.0000003E-24
 -9.5000002E-04    1.0000011E-24
 -9.1499998E-04    9.9999943E-25
 -8.8000001E-04    1.0000000E-24
 -8.4499997E-04    1.0000015E-24
 -8.1000000E-04    1.0000000E-24
 -7.7500002E-04    9.9999884E-25
 -7.3999999E-04    1.0000007E-24
 -7.0500001E-04    1.0000013E-24
 -6.6999998E-04    1.0000002E-24
 -6.3500000E-04    1.0000001E-24
 -6.0000003E-04    1.0000003E-24
 -5.6499999E-04    9.9999923E-25
 -5.3000002E-04    9.9999913E-25
 -4.9499999E-04    9.9999982E-25
 -4.6000001E-04    1.0000001E-24
 -4.2500001E-04    1.0000007E-24
 -3.9000000E-04    1.0000011E-24
 -3.5500000E-04    9.9999992E-25
 -3.1999999E-04    9.9999992E-25
 -2.8499999E-04    1.0000005E-24
 -2.5000001E-04    1.0000002E-24
 -2.1499999E-04    1.0000001E-24
 -1.8000000E-04    1.0000005E-24
 -1.4500000E-04    9.9999963E-25
 -1.1000000E-04    9.9999874E-25
 -7.5000004E-05    1.0000001E-24
 -3.9999999E-05    1.0000005E-24
 -4.9999999E-06    9.9999982E-25
  2.9999999E-05    1.0000006E-24
  6.5000000E-05    1.0000004E-24
  9.9999997E-05    9.9999913E-25
  1.3499999E-04    9.9999963E-25
  1.7000000E-04    1.0000014E-24
  2.0500000E-04    1.0000007E-24
  2.3999999E-04    9.9999982E-25
  2.7500000E-04    1.0000002E-24
  3.1000000E-04    9.9999992E-25
  3.4500001E-04    9.9999933E-25
  3.8000001E-04    9.9999992E-25
  4.1499999E-04    1.0000002E-24
  4.4999999E-04    9.9999982E-25
  4.8500000E-04    9.9999982E-25
  5.2000000E-04    1.0000000E-24
  5.5499998E-04    1.0000008E-24
  5.9000001E-04    1.0000011E-24
  6.2499999E-04    9.9999943E-25
  6.6000002E-04    9.9999913E-25
  6.9500000E-04    1.0000010E-24
  7.3000003E-04    1.0000012E-24
  7.6500000E-04    9.9999943E-25
  7.9999998E-04    9.9999933E-25
  8.3500001E-04    1.0000011E-24
  8.6999999E-04    1.0000008E-24
  9.0500002E-04    9.9999923E-25
  9.4000000E-04    9.9999943E-25
  9.7499997E-04    1.0000000E-24
  1.0100000E-03    1.0000000E-24
  1.0450000E-03    1.0000009E-24
  1.0800000E-03    1.0000011E-24
  1.1150000E-03    9.9999953E-25
  1.1500000E-03    9.9999923E-25
  1.1849999E-03    1.0000014E-24
  1.2200000E-03    1.0000009E-24
  1.2550000E-03    9.9999864E-25
  1.2900000E-03    9.9999963E-25
  1.3250000E-03    1.0000024E-24
  1.3600000E-03    1.0000015E-24
  1.3950000E-03    9.9999893E-25
  1.4299999E-03    9.9999893E-25
  1.4650000E-03    1.0000002E-24
  1.5000000E-03    1.0000001E-24
  1.5350000E-03    9.9999893E-25
  1.5700000E-03    9.9999923E-25
  1.6050000E-03    1.0000009E-24
  1.6400000E-03    1.0000008E-24
  1.6749999E-03    9.9999953E-25
  1.7100000E-03    1.0000000E-24
  1.7450000E-03    1.0000010E-24
  1.7800000E-03    1.0000009E-24
  1.8150000E-03    1.0000013E-24
  1.8500000E-03    1.0000008E-24
  1.8850000E-03    9.9999884E-25
  1.9200000E-03    9.9999844E-25
  1.9550000E-03    1.0000004E-24
  1.9900000E-03    1.0000009E-24
  2.0250001E-03    9.9999972E-25
  2.0600001E-03    9.9999943E-25
  2.0949999E-03    1.0000010E-24
  2.1299999E-03    1.0000011E-24
  2.1650000E-03    9.9999874E-25
  2.2000000E-03    9.9999834E-25
  2.2350000E-03    1.0000014E-24
  2.2700001E-03    1.0000015E-24
  2.3050001E-03    9.9999884E-25
  2.3399999E-03    9.9999972E-25
  2.3749999E-03    1.0000017E-24
  2.4100000E-03    9.9999972E-25
  2.4450000E-03    9.9999854E-25
  2.4800000E-03    1.0000006E-24
  2.5150001E-03    1.0000006E-24
  2.5500001E-03    9.9999913E-25
  2.5849999E-03    1.0000002E-24
  2.6199999E-03    1.0000012E-24
  2.6550000E-03    9.9999953E-25
  2.6900000E-03    9.9999893E-25
  2.7250000E-03    1.0000006E-24
  2.7600001E-03    1.0000005E-24
  2.7950001E-03    9.9999884E-25
  2.8299999E-03    9.9999992E-25
  2.8649999E-03    1.0000018E-24
  2.9000000E-03    1.0000007E-24
  2.9350000E-03    9.9999884E-25
  2.9700000E-03    1.0000001E-24
  3.0050001E-03    1.0000020E-24
  3.0400001E-03    1.0000012E-24
  3.0749999E-03    9.9999963E-25
  3.1099999E-03    9.9999953E-25
  3.1450000E-03    9.9999982E-25
  3.1800000E-03    1.0000001E-24
  3.2150000E-03    9.9999992E-25
  3.2500001E-03    1.0000003E-24
  3.2850001E-03    1.0000012E-24
  3.3199999E-03    1.0000006E-24
  3.3549999E-03    9.9999884E-25
  3.3900000E-03    9.9999913E-25
  3.4250000E-03    1.0000010E-24
  3.4600000E-03    1.0000012E-24
  3.4950001E-03    9.9999963E-25
  3.5300001E-03    9.9999903E-25
  3.5649999E-03    9.9999982E-25
  3.5999999E-03    1.0000004E-24
  3.6350000E-03    1.0000008E-24
  3.6700000E-03    1.0000003E-24
  3.7050000E-03    9.9999933E-25
  3.7400001E-03    9.9999982E-25
  3.7750001E-03    1.0000010E-24
  3.8099999E-03    1.0000003E-24
  3.8449999E-03    9.9999884E-25
  3.8800000E-03    9.9999893E-25
  3.9149998E-03    1.0000009E-24
  3.9499998E-03    1.0000019E-24
  3.9849998E-03    1.0000001E-24
  4.0199999E-03    9.9999884E-25
  4.0549999E-03    1.0000010E-24
  4.0899999E-03    1.0000023E-24
  4.1250000E-03    1.0000000E-24
  4.1600000E-03    9.9999805E-25
  4.1950000E-03    1.0000001E-24
  4.2300001E-03    1.0000013E-24
  4.2650001E-03    9.9999953E-25
  4.3000001E-03    9.9999943E-25
  4.3350002E-03    1.0000007E-24
  4.3700002E-03    1.0000011E-24
  4.4049998E-03    1.0000003E-24
  4.4399998E-03    1.0000001E-24
  4.4749998E-03    1.0000007E-24
  4.5099999E-03    1.0000011E-24
  4.5449999E-03    9.9999992E-25
  4.5799999E-03    9.9999824E-25
  4.6150000E-03    9.9999903E-25
  4.6500000E-03    1.0000005E-24
  4.6850001E-03    9.9999982E-25
  4.7200001E-03    1.0000000E-24
  4.7550001E-03    1.0000017E-24
  4.7900002E-03    1.0000013E-24
  4.8250002E-03    9.9999933E-25
  4.8600002E-03    9.9999943E-25
  4.8949998E-03    1.0000006E-24
  4.9299998E-03    1.0000002E-24
  4.9649999E-03    9.9999982E-25
  4.9999999E-03    1.0000001E-24
  5.0349999E-03    1.0000009E-24
  5.0700000E-03    1.0000010E-24
  5.1050000E-03    9.9999972E-25
  5.1400000E-03    9.9999933E-25
  5.1750001E-03    1.0000007E-24
  5.2100001E-03    1.0000002E-24
  5.2450001E-03    9.9999805E-25
  5.2800002E-03    9.9999972E-25
  5.3150002E-03    1.0000026E-24
  5.3500002E-03    1.0000009E-24
  5.3849998E-03    9.9999874E-25
  5.4199998E-03    9.9999982E-25
  5.4549999E-03    1.0000001E-24
  5.4899999E-03    9.9999903E-25
  5.5249999E-03    1.0000003E-24
  5.5600000E-03    1.0000015E-24
  5.5950000E-03    9.9999972E-25
  5.6300000E-03    9.9999874E-25
  5.6650001E-03    1.0000003E-24
  5.7000001E-03    1.0000001E-24
  5.7350001E-03    9.9999854E-25
  5.7700002E-03    9.9999992E-25
  5.8050002E-03    1.0000020E-24
  5.8400002E-03    1.0000020E-24
  5.8749998E-03    1.0000001E-24
  5.9099998E-03    9.9999815E-25
  5.9449999E-03    9.9999884E-25
  5.9799999E-03    1.0000015E-24
  6.0149999E-03    1.0000018E-24
  6.0500000E-03    9.9999953E-25
  6.0850000E-03    9.9999972E-25
  6.1200000E-03    1.0000009E-24
  6.1550001E-03    9.9999923E-25
  6.1900001E-03    9.9999815E-25
  6.2250001E-03    1.0000002E-24
  6.2600002E-03    1.0000012E-24
  6.2950002E-03    9.9999972E-25
  6.3299998E-03    9.9999963E-25
  6.3649998E-03    1.0000010E-24
  6.3999998E-03    1.0000005E-24
  6.4349999E-03    9.9999913E-25
  6.4699999E-03    9.9999963E-25
  6.5049999E-03    1.0000001E-24
  6.5400000E-03    9.9999933E-25
  6.5750000E-03    1.0000001E-24
  6.6100000E-03    1.0000024E-24
  6.6450001E-03    1.0000015E-24
  6.6800001E-03    9.9999884E-25
  6.7150001E-03    9.9999913E-25
  6.7500002E-03    1.0000012E-24
  6.7850002E-03    1.0000009E-24
  6.8199998E-03    9.9999933E-25
  6.8549998E-03    1.0000001E-24
  6.8899998E-03    1.0000014E-24
  6.9249999E-03    1.0000003E-24
  6.9599999E-03    9.9999893E-25
  6.9949999E-03    9.9999844E-25
  7.0300000E-03    9.9999913E-25
  7.0650000E-03    1.0000007E-24
  7.1000000E-03    1.0000014E-24
  7.1350001E-03    1.0000001E-24
  7.1700001E-03    1.0000004E-24
  7.2050001E-03    1.0000014E-24
  7.2400002E-03    1.0000006E-24
  7.2750002E-03    9.9999933E-25
  7.3099998E-03    1.0000005E-24
  7.3449998E-03    1.0000012E-24
  7.3799998E-03    9.9999943E-25
  7.4149999E-03    9.9999903E-25
  7.4499999E-03    1.0000007E-24
  7.4850000E-03    1.0000008E-24
  7.5200000E-03    9.9999884E-25
  7.5550000E-03    9.9999884E-25
  7.5900001E-03    1.0000001E-24
  7.6250001E-03    9.9999953E-25
  7.6600001E-03    9.9999933E-25
  7.6950002E-03    1.0000020E-24
  7.7300002E-03    1.0000017E-24
  7.7650002E-03    9.9999913E-25
  7.7999998E-03    9.9999992E-25
  7.8349998E-03    1.0000013E-24
  7.8699999E-03    9.9999963E-25
  7.9049999E-03    9.9999884E-25
  7.9399999E-03    1.0000007E-24
  7.9750000E-03    1.0000019E-24
  8.0100000E-03    1.0000012E-24
  8.0450000E-03    9.9999963E-25
  8.0800001E-03    9.9999903E-25
  8.1150001E-03    1.0000004E-24
  8.1500001E-03    1.0000003E-24
  8.1850002E-03    9.9999874E-25
  8.2200002E-03    1.0000000E-24
  8.2550002E-03    1.0000020E-24
  8.2900003E-03    1.0000001E-24
  8.3250003E-03    9.9999913E-25
  8.3600003E-03    1.0000009E-24
  8.3950004E-03    1.0000001E-24
  8.4300004E-03    9.9999824E-25
  8.4650004E-03    9.9999903E-25
  8.5000005E-03    9.9999963E-25
  8.5349996E-03    1.0000000E-24
  8.5699996E-03    1.0000009E-24
  8.6049996E-03    1.0000005E-24
  8.6399997E-03    9.9999943E-25
  8.6749997E-03    9.9999972E-25
  8.7099997E-03    9.9999982E-25
  8.7449998E-03    9.9999972E-25
  8.7799998E-03    1.0000015E-24
  8.8149998E-03    1.0000024E-24
  8.8499999E-03    9.9999982E-25
  8.8849999E-03    9.9999884E-25
  8.9199999E-03    1.0000022E-24
  8.9550000E-03    1.0000029E-24
  8.9900000E-03    9.9999982E-25
  9.0250000E-03    9.9999923E-25
  9.0600001E-03    9.9999992E-25
  9.0950001E-03    9.9999844E-25
  9.1300001E-03    9.9999874E-25
  9.1650002E-03    1.0000012E-24
  9.2000002E-03    1.0000011E-24
  9.2350002E-03    9.9999953E-25
  9.2700003E-03    1.0000002E-24
  9.3050003E-03    1.0000006E-24
  9.3400003E-03    9.9999903E-25
  9.3750004E-03    9.9999953E-25
  9.4100004E-03    1.0000007E-24
  9.4450004E-03    1.0000003E-24
  9.4799995E-03    9.9999982E-25
  9.5149996E-03    1.0000002E-24
  9.5499996E-03    9.9999982E-25
  9.5849996E-03    9.9999963E-25
  9.6199997E-03    1.0000014E-24
  9.6549997E-03    1.0000009E-24
  9.6899997E-03    9.9999854E-25
  9.7249998E-03    9.9999903E-25
  9.7599998E-03    1.0000006E-24
  9.7949998E-03    9.9999992E-25
  9.8299999E-03    9.9999992E-25
  9.8649999E-03    1.0000016E-24
  9.8999999E-03    1.0000007E-24
  9.9350000E-03    9.9999864E-25
  9.9700000E-03    9.9999943E-25
  1.0005000E-02    1.0000009E-24
  1.0040000E-02    9.9999992E-25
  1.0075000E-02    9.9999933E-25
  1.0110000E-02    1.0000010E-24
  1.0145000E-02    1.0000018E-24
  1.0180000E-02    1.0000006E-24
  1.0215000E-02    1.0000002E-24
  1.0250000E-02    1.0000002E-24
  1.0285000E-02    9.9999923E-25
  1.0320000E-02    9.9999864E-25
  1.0355000E-02    9.9999953E-25
  1.0390000E-02    1.0000006E-24
  1.0425000E-02    1.0000011E-24
  1.0460000E-02    1.0000002E-24
  1.0495000E-02    9.9999963E-25
  1.0530000E-02    1.0000013E-24
  1.0565000E-02    1.0000018E-24
  1.0600000E-02    9.9999893E-25
  1.0635000E-02    9.9999913E-25
  1.0670000E-02    1.0000023E-24
  1.0705000E-02    1.0000010E-24
  1.0740000E-02    9.9999854E-25
  1.0775000E-02    1.0000004E-24
  1.0810000E-02    1.0000012E-24
  1.0845000E-02    9.9999893E-25
  1.0880000E-02    9.9999903E-25
  1.0915000E-02    1.0000007E-24
  1.0950000E-02    1.0000000E-24
  1.0985000E-02    9.9999824E-25
  1.1020000E-02    1.0000000E-24
  1.1055000E-02    1.0000032E-24
  1.1090000E-02    1.0000008E-24
  1.1125000E-02    9.9999686E-25
  1.1160000E-02    9.9999982E-25
  1.1195000E-02    1.0000033E-24
  1.1230000E-02    9.9999874E-25
  1.1265000E-02    9.9999667E-25
  1.1300000E-02    1.0000016E-24
  1.1335000E-02    1.0000022E-24
  1.1370000E-02    9.9999785E-25
  1.1405000E-02    9.9999893E-25
  1.1440000E-02    1.0000018E-24
  1.1475000E-02    1.0000003E-24
  1.1510000E-02    9.9999933E-25
  1.1545000E-02    1.0000007E-24
  1.1580000E-02    1.0000007E-24
  1.1615000E-02    9.9999923E-25
  1.1650000E-02    9.9999893E-25
  1.1685000E-02    1.0000002E-24
  1.1720000E-02    1.0000008E-24
  1.1755000E-02    1.0000003E-24
  1.1790000E-02    1.0000006E-24
  1.1825000E-02    1.0000019E-24
  1.1860000E-02    1.0000007E-24
  1.1895000E-02    9.9999893E-25
  1.1930000E-02    9.9999992E-25
  1.1965000E-02    1.0000011E-24
  1.2000000E-02    9.9999963E-25
  1.2035000E-02    9.9999893E-25
  1.2070000E-02    1.0000005E-24
  1.2105000E-02    1.0000007E-24
  1.2140000E-02    9.9999893E-25
  1.2175000E-02    9.9999963E-25
  1.2210000E-02    1.0000021E-24
  1.2245000E-02    1.0000019E-24
  1.2280000E-02    9.9999943E-25
  1.2315000E-02    9.9999923E-25
  1.2350000E-02    1.0000000E-24
  1.2385000E-02    9.9999953E-25
  1.2420000E-02    9.9999933E-25
  1.2455000E-02    1.0000004E-24
  1.2490000E-02    1.0000003E-24
  1.2525000E-02    9.9999913E-25
  1.2560000E-02    1.0000002E-24
  1.2595000E-02    1.0000026E-24
  1.2630000E-02    1.0000005E-24
  1.2665000E-02    9.9999785E-25
  1.2700000E-02    1.0000001E-24
  1.2735000E-02    1.0000029E-24
  1.2770000E-02    1.0000001E-24
  1.2805000E-02    9.9999805E-25
  1.2840000E-02    1.0000010E-24
  1.2875000E-02    1.0000026E-24
  1.2910000E-02    9.9999884E-25
  1.2945000E-02    9.9999706E-25
  1.2980000E-02    9.9999972E-25
  1.3015000E-02    1.0000000E-24
  1.3050000E-02    9.9999874E-25
  1.3085000E-02    1.0000011E-24
  1.3120000E-02    1.0000036E-24
  1.3155000E-02    1.0000012E-24
  1.3190000E-02    9.9999884E-25
  1.3225000E-02    9.9999972E-25
  1.3260000E-02    1.0000001E-24
  1.3295000E-02    9.9999884E-25
  1.3330000E-02    9.9999903E-25
  1.3365000E-02    1.0000005E-24
  1.3400000E-02    1.0000002E-24
  1.3435000E-02    9.9999765E-25
  1.3470000E-02    9.9999795E-25
  1.3505000E-02    1.0000020E-24
  1.3540000E-02    1.0000027E-24
  1.3575000E-02    9.9999884E-25
  1.3610000E-02    9.9999913E-25
  1.3645000E-02    1.0000034E-24
  1.3680000E-02    1.0000028E-24
  1.3715000E-02    9.9999874E-25
  1.3750000E-02    9.9999933E-25
  1.3785000E-02    1.0000016E-24
  1.3820000E-02    1.0000006E-24
  1.3855000E-02    1.0000000E-24
  1.3890000E-02    1.0000006E-24
  1.3925000E-02    9.9999943E-25
  1.3960000E-02    9.9999854E-25
  1.3995000E-02    9.9999982E-25
  1.4030000E-02    1.0000005E-24
  1.4065000E-02    9.9999893E-25
  1.4100000E-02    9.9999854E-25
  1.4135000E-02    1.0000012E-24
  1.4170000E-02    1.0000015E-24
  1.4205000E-02    9.9999854E-25
  1.4240000E-02    9.9999933E-25
  1.4275000E-02    1.0000036E-24
  1.4310000E-02    1.0000025E-24
  1.4345000E-02    9.9999686E-25
  1.4380000E-02    9.9999795E-25
  1.4415000E-02    1.0000037E-24
  1.4450000E-02    1.0000020E-24
  1.4485000E-02    9.9999677E-25
  1.4520000E-02    9.9999893E-25
  1.4555000E-02    1.0000025E-24
  1.4590000E-02    9.9999933E-25
  1.4625000E-02    9.9999647E-25
  1.4660000E-02    9.9999953E-25
  1.4695000E-02    1.0000020E-24
  1.4730000E-02    1.0000017E-24
  1.4765000E-02    1.0000019E-24
  1.4800000E-02    1.0000012E-24
  1.4835000E-02    9.9999864E-25
  1.4870000E-02    9.9999884E-25
  1.4905000E-02    1.0000009E-24
  1.4940000E-02    1.0000008E-24
  1.4975000E-02    9.9999972E-25
  1.5010000E-02    1.0000009E-24
  1.5045000E-02    1.0000023E-24
  1.5080000E-02    1.0000001E-24
  1.5115000E-02    9.9999706E-25
  1.5150000E-02    9.9999844E-25
  1.5185000E-02    1.0000023E-24
  1.5220000E-02    1.0000007E-24
  1.5255000E-02    9.9999736E-25
  1.5290000E-02    9.9999992E-25
  1.5325000E-02    1.0000040E-24
  1.5360000E-02    1.0000013E-24
  1.5395000E-02    9.9999706E-25
  1.5430000E-02    9.9999972E-25
  1.5465000E-02    1.0000029E-24
  1.5500000E-02    9.9999972E-25
  1.5535000E-02    9.9999696E-25
  1.5570000E-02    9.9999992E-25
  1.5605000E-02    1.0000021E-24
  1.5640000E-02    1.0000006E-24
  1.5675001E-02    1.0000007E-24
  1.5710000E-02    1.0000006E-24
  1.5745001E-02    9.9999775E-25
  1.5780000E-02    9.9999874E-25
  1.5814999E-02    1.0000028E-24
  1.5850000E-02    1.0000009E-24
  1.5884999E-02    9.9999746E-25
  1.5920000E-02    1.0000012E-24
  1.5954999E-02    1.0000040E-24
  1.5990000E-02    9.9999972E-25
  1.6024999E-02    9.9999726E-25
  1.6060000E-02    9.9999972E-25
  1.6094999E-02    1.0000010E-24
  1.6130000E-02    9.9999913E-25
  1.6164999E-02    9.9999864E-25
  1.6200000E-02    1.0000016E-24
  1.6235000E-02    1.0000029E-24
  1.6270000E-02    9.9999913E-25
  1.6305000E-02    9.9999706E-25
  1.6340001E-02    1.0000002E-24
  1.6375000E-02    1.0000007E-24
  1.6410001E-02    9.9999746E-25
  1.6445000E-02    9.9999923E-25
  1.6480001E-02    1.0000039E-24
  1.6515000E-02    1.0000028E-24
  1.6550001E-02    9.9999893E-25
  1.6585000E-02    1.0000003E-24
  1.6620001E-02    1.0000021E-24
  1.6655000E-02    9.9999884E-25
  1.6690001E-02    9.9999657E-25
  1.6725000E-02    9.9999953E-25
  1.6759999E-02    1.0000016E-24
  1.6795000E-02    1.0000000E-24
  1.6829999E-02    1.0000000E-24
  1.6865000E-02    1.0000013E-24
  1.6899999E-02    1.0000004E-24
  1.6935000E-02    9.9999903E-25
  1.6969999E-02    9.9999943E-25
  1.7005000E-02    9.9999963E-25
  1.7039999E-02    1.0000000E-24
  1.7075000E-02    1.0000020E-24
  1.7109999E-02    1.0000030E-24
  1.7145000E-02    1.0000000E-24
  1.7180000E-02    9.9999765E-25
  1.7215000E-02    9.9999982E-25
  1.7250000E-02    1.0000010E-24
  1.7285001E-02    9.9999874E-25
  1.7320000E-02    9.9999943E-25
  1.7355001E-02    1.0000023E-24
  1.7390000E-02    1.0000005E-24
  1.7425001E-02    9.9999864E-25
  1.7460000E-02    1.0000012E-24
  1.7495001E-02    1.0000008E-24
  1.7530000E-02    9.9999775E-25
  1.7565001E-02    9.9999982E-25
  1.7600000E-02    1.0000017E-24
  1.7635001E-02    9.9999824E-25
  1.7670000E-02    9.9999844E-25
  1.7704999E-02    1.0000037E-24
  1.7740000E-02    1.0000031E-24
  1.7774999E-02    9.9999874E-25
  1.7810000E-02    9.9999953E-25
  1.7844999E-02    1.0000016E-24
  1.7880000E-02    9.9999864E-25
  1.7914999E-02    9.9999667E-25
  1.7950000E-02    1.0000016E-24
  1.7984999E-02    1.0000046E-24
  1.8020000E-02    9.9999923E-25
  1.8054999E-02    9.9999598E-25
  1.8090000E-02    1.0000016E-24
  1.8124999E-02    1.0000049E-24
  1.8160000E-02    9.9999805E-25
  1.8195000E-02    9.9999184E-25
  1.8230001E-02    9.9999943E-25
  1.8265000E-02    1.0000133E-24
  1.8300001E-02    1.0000083E-24
  1.8335000E-02    9.9998355E-25
  1.8370001E-02    9.9998069E-25
  1.8405000E-02    1.0000197E-24
  1.8440001E-02    1.0000345E-24
  1.8475000E-02    9.9997556E-25
  1.8510001E-02    9.9993908E-25
  1.8545000E-02    1.0000228E-24
  1.8580001E-02    1.0000992E-24
  1.8615000E-02    9.9999538E-25
  1.8650001E-02    9.9985714E-25
  1.8685000E-02    9.9996659E-25
  1.8719999E-02    1.0001902E-24
  1.8755000E-02    1.0001033E-24
  1.8789999E-02    9.9976790E-25
  1.8825000E-02    9.9978111E-25
  1.8859999E-02    1.0002486E-24
  1.8895000E-02    1.0003943E-24
  1.8929999E-02    9.9979758E-25
  1.8965000E-02    9.9936854E-25
  1.8999999E-02    1.0000491E-24
  1.9035000E-02    1.0009266E-24
  1.9069999E-02    1.0002811E-24
  1.9105000E-02    9.9875155E-25
  1.9140000E-02    9.9912557E-25
  1.9175000E-02    1.0015221E-24
  1.9210000E-02    1.0018268E-24
  1.9245001E-02    9.9838818E-25
  1.9280000E-02    9.9677486E-25
  1.9315001E-02    1.0012973E-24
  1.9350000E-02    1.0051136E-24
  1.9385001E-02    9.9973723E-25
  1.9420000E-02    9.9255386E-25
  1.9455001E-02    9.9808595E-25
  1.9490000E-02    1.0100175E-24
  1.9525001E-02    1.0057595E-24
  1.9560000E-02    9.8765770E-25
  1.9595001E-02    9.8817549E-25
  1.9630000E-02    1.0135532E-24
  1.9664999E-02    1.0205637E-24
  1.9700000E-02    9.8771233E-25
  1.9734999E-02    9.6786518E-25
  1.9770000E-02    1.0065928E-24
  1.9804999E-02    1.0460730E-24
  1.9840000E-02    1.0060837E-24
  1.9874999E-02    9.3915932E-25
  1.9910000E-02    9.7125906E-25
  1.9944999E-02    1.0732747E-24
  1.9980000E-02    1.0644252E-24
  2.0014999E-02    9.2203473E-25
  2.0050000E-02    8.8454470E-25
  2.0085000E-02    1.0666965E-24
  2.0120000E-02    1.1821781E-24
  2.0155000E-02    9.7187476E-25
  2.0190001E-02    7.3885314E-25
  2.0225000E-02    9.4800847E-25
  2.0260001E-02    1.3427439E-24
  2.0295000E-02    1.1896362E-24
  2.0330001E-02    5.9163878E-25
  2.0365000E-02    6.0006854E-25
  2.0400001E-02    1.4275260E-24
  2.0435000E-02    1.6925748E-24
  2.0470001E-02    6.4432512E-25
  2.0505000E-02   -6.4873178E-26
  2.0540001E-02    1.1336673E-24
  2.0575000E-02    2.4921753E-24
  2.0609999E-02    1.3094176E-24
  2.0645000E-02   -9.1599274E-25
  2.0679999E-02   -4.8198881E-26
  2.0715000E-02    3.2310066E-24
  2.0749999E-02    3.1454961E-24
  2.0785000E-02   -1.2732181E-24
  2.0819999E-02   -2.6272504E-24
  2.0855000E-02    2.8132336E-24
  2.0889999E-02    6.4466084E-24
  2.0925000E-02    4.3966043E-25
  2.0959999E-02   -6.4375523E-24
  2.0995000E-02   -8.1524337E-25
  2.1029999E-02    1.0261277E-23
  2.1065000E-02    6.6332174E-24
  2.1100000E-02   -9.3528722E-24
  2.1135001E-02   -1.0118518E-23
  2.1170000E-02    1.0881553E-23
  2.1205001E-02    1.9274511E-23
  2.1240000E-02   -5.7444366E-24
  2.1275001E-02   -2.5712915E-23
  2.1310000E-02    6.2047401E-25
  2.1345001E-02    3.6448608E-23
  2.1380000E-02    1.3882860E-23
  2.1415001E-02   -4.1682653E-23
  2.1450000E-02   -3.0956448E-23
  2.1485001E-02    4.6616366E-23
  2.1520000E-02    5.9161394E-23
  2.1555001E-02   -3.9363777E-23
  2.1590000E-02   -8.9833126E-23
  2.1624999E-02    2.3055580E-23
  2.1660000E-02    1.2833681E-22
  2.1694999E-02    1.5750484E-23
  2.1730000E-02   -1.6124077E-22
  2.1764999E-02   -7.4226680E-23
  2.1800000E-02    1.8754394E-22
  2.1834999E-02    1.6388701E-22
  2.1870000E-02   -1.8617656E-22
  2.1904999E-02   -2.7658569E-22
  2.1940000E-02    1.4808742E-22
  2.1974999E-02    4.1393506E-22
  2.2010000E-02   -4.5313827E-23
  2.2045000E-02   -5.5233254E-22
  2.2080000E-02   -1.3451965E-22
  2.2115000E-02    6.7201190E-22
  2.2150001E-02    4.1584817E-22
  2.2185000E-02   -7.2282464E-22
  2.2220001E-02   -7.9667308E-22
  2.2255000E-02    6.5577575E-22
  2.2290001E-02    1.2719423E-21
  2.2325000E-02   -3.9364495E-22
  2.2360001E-02   -1.7913295E-21
  2.2395000E-02   -1.2977071E-22
  2.2430001E-02    2.2806844E-21
  2.2465000E-02    9.8829787E-22
  2.2500001E-02   -2.6013734E-21
  2.2535000E-02   -2.2107886E-21
  2.2569999E-02    2.5788339E-21
  2.2605000E-02    3.7851341E-21
  2.2639999E-02   -1.9767038E-21
  2.2675000E-02   -5.5923637E-21
  2.2709999E-02    5.4962355E-22
  2.2745000E-02    7.4027002E-21
  2.2779999E-02    1.9481711E-21
  2.2815000E-02   -8.8126183E-21
  2.2849999E-02   -5.6666363E-21
  2.2885000E-02    9.2614809E-21
  2.2919999E-02    1.0603145E-20
  2.2955000E-02   -8.0138405E-21
  2.2990000E-02   -1.6461620E-20
  2.3025000E-02    4.2518319E-21
  2.3060000E-02    2.2567676E-20
  2.3095001E-02    2.8338741E-21
  2.3130000E-02   -2.7734028E-20
  2.3165001E-02   -1.3814063E-20
  2.3200000E-02    3.0237852E-20
  2.3235001E-02    2.8777530E-20
  2.3270000E-02   -2.7826262E-20
  2.3305001E-02   -4.6960265E-20
  2.3340000E-02    1.7929620E-20
  2.3375001E-02    6.6414803E-20
  2.3410000E-02    1.9954169E-21
  2.3445001E-02   -8.3662185E-20
  2.3480000E-02   -3.3828873E-20
  2.3514999E-02    9.3559995E-20
  2.3550000E-02    7.7981367E-20
  2.3584999E-02   -8.9395011E-20
  2.3620000E-02   -1.3234224E-19
  2.3654999E-02    6.3482228E-20
  2.3690000E-02    1.9123925E-19
  2.3724999E-02   -8.2856065E-21
  2.3760000E-02   -2.4450572E-19
  2.3794999E-02   -8.1719674E-20
  2.3830000E-02    2.7710757E-19
  2.3864999E-02    2.0759182E-19
  2.3900000E-02   -2.6960667E-19
  2.3934999E-02   -3.6293488E-19
  2.3970000E-02    2.0002560E-19
  2.4005000E-02    5.3093792E-19
  2.4040001E-02   -4.7359919E-20
  2.4075000E-02   -6.8201036E-19
  2.4110001E-02   -2.0295088E-19
  2.4145000E-02    7.7310818E-19
  2.4180001E-02    5.5190132E-19
  2.4215000E-02   -7.4976954E-19
  2.4250001E-02   -9.7872941E-19
  2.4285000E-02    5.5213923E-19
  2.4320001E-02    1.4331721E-18
  2.4355000E-02   -1.2571271E-19
  2.4390001E-02   -1.8301681E-18
  2.4425000E-02   -5.6290215E-19
  2.4460001E-02    2.0498770E-18
  2.4495000E-02    1.5062827E-18
  2.4529999E-02   -1.9459368E-18
  2.4565000E-02   -2.6349568E-18
  2.4599999E-02    1.3648252E-18
  2.4635000E-02    3.7991161E-18
  2.4669999E-02   -1.7774532E-19
  2.4705000E-02   -4.7592705E-18
  2.4739999E-02   -1.6755778E-18
  2.4775000E-02    5.1933459E-18
  2.4809999E-02    4.1354221E-18
  2.4845000E-02   -4.7274911E-18
  2.4879999E-02   -6.9712383E-18
  2.4915000E-02    2.9962562E-18
  2.4950000E-02    9.7444498E-18
  2.4985000E-02    2.6674432E-19
  2.5020000E-02   -1.1801426E-17
  2.5055001E-02   -5.1133824E-18
  2.5090000E-02    1.2314900E-17
  2.5125001E-02    1.1256178E-17
  2.5160000E-02   -1.0389408E-17
  2.5195001E-02   -1.7959918E-17
  2.5230000E-02    5.2388628E-18
  2.5265001E-02    2.3985500E-17
  2.5300000E-02    3.5698390E-18
  2.5335001E-02   -2.7627568E-17
  2.5370000E-02   -1.5833218E-17
  2.5405001E-02    2.6885658E-17
  2.5440000E-02    3.0437719E-17
  2.5474999E-02   -1.9795286E-17
  2.5510000E-02   -4.5169921E-17
  2.5544999E-02    4.9187377E-18
  2.5580000E-02    5.6701166E-17
  2.5614999E-02    1.8046115E-17
  2.5650000E-02   -6.0839372E-17
  2.5684999E-02   -4.7631627E-17
  2.5720000E-02    5.3120348E-17
  2.5754999E-02    8.0088229E-17
  2.5790000E-02   -2.9760082E-17
  2.5824999E-02   -1.0918445E-16
  2.5860000E-02   -1.1091585E-17
  2.5895000E-02    1.2652474E-16
  2.5930000E-02    6.7963105E-17
  2.5965000E-02   -1.2256233E-16
  2.6000001E-02   -1.3482430E-16
  2.6035000E-02    8.8391210E-17
  2.6070001E-02    2.0038745E-16
  2.6105000E-02   -1.8244625E-17
  2.6140001E-02   -2.4838688E-16
  2.6175000E-02   -8.7590810E-17
  2.6210001E-02    2.5923809E-16
  2.6245000E-02    2.1998424E-16
  2.6280001E-02   -2.1332153E-16
  2.6315000E-02   -3.5906142E-16
  2.6350001E-02    9.5832004E-17
  2.6385000E-02    4.7410605E-16
  2.6419999E-02    9.7293632E-17
  2.6455000E-02   -5.2613870E-16
  2.6489999E-02   -3.5336653E-16
  2.6525000E-02    4.7377973E-16
  2.6559999E-02    6.3834277E-16
  2.6595000E-02   -2.8244660E-16
  2.6629999E-02   -8.9545274E-16
  2.6665000E-02   -6.3898584E-17
  2.6699999E-02    1.0489101E-15
  2.6735000E-02    5.5025500E-16
  2.6769999E-02   -1.0140975E-15
  2.6805000E-02   -1.1201572E-15
  2.6839999E-02    7.1462285E-16
  2.6875000E-02    1.6709043E-15
  2.6910000E-02   -1.0504913E-16
  2.6945001E-02   -2.0582104E-15
  2.6980000E-02   -8.0386825E-16