 -4.8000002E-03    1.0000000E-24
 -4.7650002E-03    1.0000002E-24
 -4.7300002E-03    1.0000001E-24
 -4.6950001E-03    1.0000000E-24
 -4.6600001E-03    1.0000003E-24
 -4.6250001E-03    1.0000002E-24
 -4.5900000E-03    9.9999992E-25
 -4.5550000E-03    1.0000003E-24
 -4.5200000E-03    1.0000002E-24
 -4.4849999E-03    9.9999963E-25
 -4.4499999E-03    1.0000001E-24
 -4.4149999E-03    1.0000007E-24
 -4.3799998E-03    1.0000003E-24
 -4.3449998E-03    1.0000000E-24
 -4.3100002E-03    1.0000001E-24
 -4.2750002E-03    1.0000000E-24
 -4.2400002E-03    9.9999992E-25
 -4.2050001E-03    1.0000001E-24
 -4.1700001E-03    1.0000001E-24
 -4.1350001E-03    1.0000004E-24
 -4.1000000E-03    1.0000006E-24
 -4.0650000E-03    1.0000001E-24
 -4.0300000E-03    9.9999953E-25
 -3.9949999E-03    9.9999982E-25
 -3.9599999E-03    1.0000001E-24
 -3.9249999E-03    1.0000000E-24
 -3.8900001E-03    1.0000000E-24
 -3.8550000E-03    1.0000001E-24
 -3.8200000E-03    1.0000004E-24
 -3.7849999E-03    1.0000006E-24
 -3.7499999E-03    1.0000001E-24
 -3.7150001E-03    9.9999972E-25
 -3.6800001E-03    9.9999982E-25
 -3.6450000E-03    1.0000008E-24
 -3.6100000E-03    1.0000002E-24
 -3.5750000E-03    9.9999913E-25
 -3.5399999E-03    1.0000034E-24
 -3.5049999E-03    9.9999716E-25
 -3.4700001E-03    9.9997695E-25
 -3.4350001E-03    1.0000870E-24
 -3.4000000E-03    9.9998286E-25
 -3.3650000E-03    9.9933156E-25
 -3.3300000E-03    1.0015064E-24
 -3.2949999E-03    1.0020091E-24
 -3.2599999E-03    9.8643990E-25
 -3.2250001E-03    1.0082018E-24
 -3.1900001E-03    1.0683378E-24
 -3.1550000E-03    8.6652643E-25
 -3.1200000E-03    8.0738410E-25
 -3.0850000E-03    1.8605334E-24
 -3.0499999E-03    9.7399275E-25
 -3.0149999E-03   -2.6641568E-24
 -2.9800001E-03    4.5711898E-24
 -2.9450001E-03    1.1824556E-23
 -2.9100000E-03   -2.1521299E-23
 -2.8750000E-03   -1.7357625E-23
 -2.8400000E-03    9.0999346E-23
 -2.8049999E-03   -1.4832980E-23
 -2.7699999E-03   -2.6021482E-22
 -2.7350001E-03    2.5957290E-22
 -2.7000001E-03    5.3041205E-22
 -2.6650000E-03   -1.1417749E-21
 -2.6300000E-03   -4.6774590E-22
 -2.5950000E-03    3.3775529E-21
 -2.5599999E-03   -1.6740488E-21
 -2.5249999E-03   -7.1116966E-21
 -2.4900001E-03    1.0454637E-20
 -2.4550001E-03    8.6748160E-21
 -2.4200000E-03   -3.3867362E-20
 -2.3850000E-03    7.4206187E-21
 -2.3500000E-03    7.8405846E-20
 -2.3149999E-03   -8.1676874E-20
 -2.2799999E-03   -1.2826476E-19
 -2.2450001E-03    2.9080238E-19
 -2.2100001E-03    9.4827410E-20
 -2.1750000E-03   -7.3163122E-19
 -2.1400000E-03    2.7019899E-19
 -2.1050000E-03    1.4271407E-18
 -2.0699999E-03   -1.4705857E-18
 -2.0349999E-03   -2.0869370E-18
 -2.0000001E-03    4.2717733E-18
 -1.9650001E-03    1.6830655E-18
 -1.9300000E-03   -9.4222084E-18
 -1.8950000E-03    2.0811037E-18
 -1.8600000E-03    1.6832103E-17
 -1.8250000E-03   -1.3110474E-17
 -1.7900000E-03   -2.4028856E-17
 -1.7550000E-03    3.6512113E-17
 -1.7199999E-03    2.4031630E-17
 -1.6850000E-03   -7.6771096E-17
 -1.6500000E-03   -3.3602419E-18
 -1.6150000E-03    1.3407350E-16
 -1.5800000E-03   -5.8483271E-17
 -1.5450000E-03   -1.9902867E-16
 -1.5100000E-03    1.8644594E-16
 -1.4750001E-03    2.4697146E-16
 -1.4400000E-03   -4.0312545E-16
 -1.4050000E-03   -2.3367320E-16
 -1.3700000E-03    7.1788409E-16
 -1.3350000E-03    9.4133094E-17
 -1.3000000E-03   -1.1136191E-15
 -1.2650000E-03    2.5485903E-16
 -1.2300001E-03    1.5338991E-15
 -1.1950000E-03   -9.0875963E-16
 -1.1600000E-03   -1.8726418E-15
 -1.1250000E-03    1.9664080E-15
 -1.0900000E-03    1.9663643E-15
 -1.0550000E-03   -3.5178428E-15
 -1.0200000E-03   -1.5861774E-15
 -9.8500005E-04    5.6278419E-15
 -9.5000002E-04    4.2482646E-16
 -9.1499998E-04   -8.3161475E-15
 -8.8000001E-04    1.9247828E-15
 -8.4499997E-04    1.1539797E-14
 -8.1000000E-04   -5.9966566E-15
 -7.7500002E-04   -1.5185115E-14
 -7.3999999E-04    1.2467680E-14
 -7.0500001E-04    1.9067089E-14
 -6.6999998E-04   -2.2129734E-14
 -6.3500000E-04   -2.2906978E-14
 -6.0000003E-04    3.5783862E-14
 -5.6499999E-04    2.6231404E-14
 -5.3000002E-04   -5.4056254E-14
 -4.9499999E-04   -2.8147881E-14
 -4.6000001E-04    7.7195852E-14
 -4.2500001E-04    2.7023903E-14
 -3.9000000E-04   -1.0495537E-13
 -3.5500000E-04   -2.0186684E-14
 -3.1999999E-04    1.3664413E-13
 -2.8499999E-04    3.8039653E-15
 -2.5000001E-04   -1.7135430E-13
 -2.1499999E-04    2.6908173E-14
 -1.8000000E-04    2.0814196E-13
 -1.4500000E-04   -7.7129783E-14
 -1.1000000E-04   -2.4561080E-13
 -7.5000004E-05    1.5194238E-13
 -3.9999999E-05    2.8036793E-13
 -4.9999999E-06   -2.5690130E-13
  2.9999999E-05   -3.0483922E-13
  6.5000000E-05    4.0048883E-13
  9.9999997E-05    3.0640285E-13
  1.3499999E-04   -5.9762606E-13
  1.7000000E-04   -2.6981667E-13
  2.0500000E-04    8.7182475E-13
  2.3999999E-04    1.8305007E-13
  2.7500000E-04   -1.2538302E-12
  3.1000000E-04   -4.5144522E-14
  3.4500001E-04    1.7751431E-12
  3.8000001E-04   -1.2631770E-13
  4.1499999E-04   -2.4540528E-12
  4.4999999E-04    2.9441036E-13
  4.8500000E-04    3.2752757E-12
  5.2000000E-04   -4.1752802E-13
  5.5499998E-04   -4.1749252E-12
  5.9000001E-04    4.7790363E-13
  6.2499999E-04    5.0449870E-12
  6.6000002E-04   -5.0619258E-13
  6.9500000E-04   -5.7536150E-12
  7.3000003E-04    5.8979769E-13
  7.6500000E-04    6.1648377E-12
  7.9999998E-04   -8.7380819E-13
  8.3500001E-04   -6.1558445E-12
  8.6999999E-04    1.5586911E-12
  9.0500002E-04    5.6329550E-12
  9.4000000E-04   -2.8869097E-12
  9.7499997E-04   -4.5234242E-12
  1.0100000E-03    5.1509122E-12
  1.0450000E-03    2.7607079E-12
  1.0800000E-03   -8.7668544E-12
  1.1150000E-03   -3.8063021E-13
  1.1500000E-03    1.4314147E-11
  1.1849999E-03   -2.2283115E-12
  1.2200000E-03   -2.2332891E-11
  1.2550000E-03    4.1452345E-12
  1.2900000E-03    3.2893275E-11
  1.3250000E-03   -4.0590990E-12
  1.3600000E-03   -4.5213500E-11
  1.3950000E-03    6.8409292E-13
  1.4299999E-03    5.7457469E-11
  1.4650000E-03    6.6301591E-12
  1.5000000E-03   -6.6748447E-11
  1.5350000E-03   -1.6995197E-11
  1.5700000E-03    6.9844103E-11
  1.6050000E-03    2.7228586E-11
  1.6400000E-03   -6.4755978E-11
  1.6749999E-03   -3.2375259E-11
  1.7100000E-03    5.2254989E-11
  1.7450000E-03    2.7645396E-11
  1.7800000E-03   -3.5819073E-11
  1.8150000E-03   -1.0237816E-11
  1.8500000E-03    2.0294886E-11
  1.8850000E-03   -1.9957895E-11
  1.9200000E-03   -1.0393277E-11
  1.9550000E-03    6.0396736E-11
  1.9900000E-03    9.0173155E-12
  2.0250001E-03   -1.0710804E-10
  2.0600001E-03   -1.6182746E-11
  2.0949999E-03    1.5751214E-10
  2.1299999E-03    3.1098738E-11
  2.1650000E-03   -2.1135693E-10
  2.2000000E-03   -5.6187902E-11
  2.2350000E-03    2.6644911E-10
  2.2700001E-03    9.6542926E-11
  2.3050001E-03   -3.1400096E-10
  2.3399999E-03   -1.5369914E-10
  2.3749999E-03    3.4023551E-10
  2.4100000E-03    2.2114932E-10
  2.4450000E-03   -3.3075026E-10
  2.4800000E-03   -2.8274341E-10
  2.5150001E-03    2.7417291E-10
  2.5500001E-03    3.0871489E-10
  2.5849999E-03   -1.7418175E-10
  2.6199999E-03   -2.6052954E-10
  2.6550000E-03    6.6281362E-11
  2.6900000E-03    1.1956540E-10
  2.7250000E-03   -7.5824095E-12
  2.7600001E-03    8.7644191E-11
  2.7950001E-03    3.6043113E-11
  2.8299999E-03   -3.0777894E-10
  2.8649999E-03   -1.5176482E-10
  2.9000000E-03    4.9354637E-10
  2.9350000E-03    3.3383354E-10
  2.9700000E-03   -6.0370986E-10
  3.0050001E-03   -5.3588439E-10
  3.0400001E-03    6.1584854E-10
  3.0749999E-03    6.7900363E-10
  3.1099999E-03   -5.7781824E-10
  3.1450000E-03   -7.2418149E-10
  3.1800000E-03    5.7927885E-10
  3.2150000E-03    7.3323725E-10
  3.2500001E-03   -6.2891875E-10
  3.2850001E-03   -7.7028528E-10
  3.3199999E-03    6.5533839E-10
  3.3549999E-03    8.0452278E-10
  3.3900000E-03   -6.3543781E-10
  3.4250000E-03   -7.9693852E-10
  3.4600000E-03    5.7496441E-10
  3.4950001E-03    7.3118073E-10
  3.5300001E-03   -4.4072163E-10
  3.5649999E-03   -4.9581228E-10
  3.5999999E-03    3.2547454E-10
  3.6350000E-03    1.7086119E-11
  3.6700000E-03   -4.8039034E-10
  3.7050000E-03    4.8125182E-10
  3.7400001E-03    9.4325758E-10
  3.7750001E-03   -7.1581552E-10
  3.8099999E-03   -1.4606371E-09
  3.8449999E-03    6.9027822E-10
  3.8800000E-03    1.8756952E-09
  3.9149998E-03   -4.6366619E-10
  3.9499998E-03   -2.0859641E-09
  3.9849998E-03    6.2910795E-11
  4.0199999E-03    1.8329858E-09
  4.0549999E-03    1.2930752E-10
  4.0899999E-03   -1.2132029E-09
  4.1250000E-03    2.7346550E-10
  4.1600000E-03    8.2221951E-10
  4.1950000E-03   -9.6549857E-10
  4.2300001E-03   -8.6289903E-10
  4.2650001E-03    1.5098718E-09
  4.3000001E-03    1.0787891E-09
  4.3350002E-03   -1.9116038E-09
  4.3700002E-03   -1.4964081E-09
  4.4049998E-03    1.9413371E-09
  4.4399998E-03    1.8979402E-09
  4.4749998E-03   -1.3938423E-09
  4.5099999E-03   -1.5647557E-09
  4.5449999E-03    1.0348753E-09
  4.5799999E-03    6.8513684E-10
  4.6150000E-03   -1.4333972E-09
  4.6500000E-03   -1.6772859E-10
  4.6850001E-03    1.9542321E-09
  4.7200001E-03   -9.0664511E-11
  4.7550001E-03   -2.4171496E-09
  4.7900002E-03    2.4106361E-10
  4.8250002E-03    3.0355183E-09
  4.8600002E-03    3.0844527E-10
  4.8949998E-03   -2.8808251E-09
  4.9299998E-03   -8.9272184E-10
  4.9649999E-03    1.6597675E-09
  4.9999999E-03    1.6800458E-10
  5.0349999E-03   -1.0199724E-09
  5.0700000E-03    9.2496077E-10
  5.1050000E-03    1.1343169E-09
  5.1400000E-03   -1.5098544E-09
  5.1750001E-03   -1.0358341E-09
  5.2100001E-03    2.4086970E-09
  5.2450001E-03    1.4352205E-09
  5.2800002E-03   -3.1713254E-09
  5.3150002E-03   -2.6230711E-09
  5.3500002E-03    2.3780264E-09
  5.3849998E-03    2.4176716E-09
  5.4199998E-03   -1.8628008E-09
  5.4549999E-03   -1.3753948E-09
  5.4899999E-03    2.4219677E-09
  5.5249999E-03    1.0326822E-09
  5.5600000E-03   -2.6682383E-09
  5.5950000E-03   -7.8589724E-10
  5.6300000E-03    2.4303985E-09
  5.6650001E-03   -1.4415766E-10
  5.7000001E-03   -3.2170060E-09
  5.7350001E-03   -3.7400874E-10
  5.7700002E-03    2.7873839E-09
  5.8050002E-03    4.9482396E-10
  5.8400002E-03   -2.0499638E-09
  5.8749998E-03    6.2959533E-11
  5.9099998E-03    1.7761644E-09
  5.9449999E-03   -9.3255870E-10
  5.9799999E-03   -2.2049105E-09
  6.0149999E-03    1.2240267E-09
  6.0500000E-03    1.7363999E-09
  6.0850000E-03   -3.1291911E-09
  6.1200000E-03   -3.4665080E-09
  6.1550001E-03    2.4279192E-09
  6.1900001E-03    3.0495086E-09
  6.2250001E-03   -2.4845450E-09
  6.2600002E-03   -2.7404949E-09
  6.2950002E-03    2.1449642E-09
  6.3299998E-03    2.2472322E-09
  6.3649998E-03   -1.8131893E-09
  6.3999998E-03   -2.7977982E-09
  6.4349999E-03   -1.1847842E-09
  6.4699999E-03   -1.0405832E-09
  6.5049999E-03   -1.5638554E-09
  6.5400000E-03   -2.9704267E-10
  6.5750000E-03    1.2150694E-09
  6.6100000E-03   -8.0362592E-11
  6.6450001E-03   -1.7691139E-09
  6.6800001E-03    5.4365096E-10
  6.7150001E-03    2.3710767E-09
  6.7500002E-03   -2.3123872E-09
  6.7850002E-03   -6.3001124E-09
  6.8199998E-03   -2.1473436E-09
  6.8549998E-03    1.9247275E-09
  6.8899998E-03   -6.1661737E-10
  6.9249999E-03   -2.4089324E-09
  6.9599999E-03   -4.2948100E-11
  6.9949999E-03    1.1992086E-09
  7.0300000E-03    7.6578072E-10
  7.0650000E-03    2.3908114E-10
  7.1000000E-03   -1.6015940E-09
  7.1350001E-03   -2.5212363E-09
  7.1700001E-03   -7.0203782E-10
  7.2050001E-03    2.0205983E-10
  7.2400002E-03   -7.2433620E-10
  7.2750002E-03   -7.5489437E-10
  7.3099998E-03    5.9769478E-10
  7.3449998E-03    3.0606728E-09
  7.3799998E-03    4.2672696E-09
  7.4149999E-03    1.6362549E-09
  7.4499999E-03    7.8451734E-10
  7.4850000E-03    5.0250839E-09
  7.5200000E-03    5.6138374E-09
  7.5550000E-03    1.3508457E-09
  7.5900001E-03    2.2199038E-09
  7.6250001E-03    6.4541674E-09
  7.6600001E-03    6.7667361E-09
  7.6950002E-03    7.6430933E-09
  7.7300002E-03    1.1491514E-08
  7.7650002E-03    1.2580489E-08
  7.7999998E-03    1.1949870E-08
  7.8349998E-03    1.4107329E-08
  7.8699999E-03    1.6858648E-08
  7.9049999E-03    1.6876205E-08
  7.9399999E-03    1.5407020E-08
  7.9750000E-03    1.7376060E-08
  8.0100000E-03    2.4234568E-08
  8.0450000E-03    2.8327918E-08
  8.0800001E-03    2.6825798E-08
  8.1150001E-03    2.9341733E-08
  8.1500001E-03    3.7260129E-08
  8.1850002E-03    4.0104485E-08
  8.2200002E-03    3.7803183E-08
  8.2550002E-03    3.9606615E-08
  8.2900003E-03    4.6250271E-08
  8.3250003E-03    5.1115695E-08
  8.3600003E-03    5.2754078E-08
  8.3950004E-03    5.7522968E-08
  8.4300004E-03    6.5998599E-08
  8.4650004E-03    6.8627969E-08
  8.5000005E-03    6.7871426E-08
  8.5349996E-03    7.6411695E-08
  8.5699996E-03    8.6524075E-08
  8.6049996E-03    8.5438053E-08
  8.6399997E-03    8.5388159E-08
  8.6749997E-03    9.6073734E-08
  8.7099997E-03    1.0575158E-07
  8.7449998E-03    1.0871351E-07
  8.7799998E-03    1.1102275E-07
  8.8149998E-03    1.1737288E-07
  8.8499999E-03    1.2810550E-07
  8.8849999E-03    1.3442279E-07
  8.9199999E-03    1.3399644E-07
  8.9550000E-03    1.4140588E-07
  8.9900000E-03    1.5349474E-07
  9.0250000E-03    1.5317758E-07
  9.0600001E-03    1.5266906E-07
  9.0950001E-03    1.6486740E-07
  9.1300001E-03    1.7308734E-07
  9.1650002E-03    1.7474871E-07
  9.2000002E-03    1.8266932E-07
  9.2350002E-03    1.9033034E-07
  9.2700003E-03    1.9427225E-07
  9.3050003E-03    1.9938874E-07
  9.3400003E-03    1.9893824E-07
  9.3750004E-03    1.9939614E-07
  9.4100004E-03    2.1022723E-07
  9.4450004E-03    2.1157517E-07
  9.4799995E-03    2.0342341E-07
  9.5149996E-03    2.1373995E-07
  9.5499996E-03    2.2721895E-07
  9.5849996E-03    2.1883992E-07
  9.6199997E-03    2.1522872E-07
  9.6549997E-03    2.2724403E-07
  9.6899997E-03    2.2475497E-07
  9.7249998E-03    2.1238749E-07
  9.7599998E-03    2.1485037E-07
  9.7949998E-03    2.1916171E-07
  9.8299999E-03    2.1169559E-07
  9.8649999E-03    2.0493543E-07
  9.8999999E-03    2.0173459E-07
  9.9350000E-03    1.9652784E-07
  9.9700000E-03    1.9398580E-07
  1.0005000E-02    1.9108950E-07
  1.0040000E-02    1.7973322E-07
  1.0075000E-02    1.7034496E-07
  1.0110000E-02    1.6949495E-07
  1.0145000E-02    1.5945291E-07
  1.0180000E-02    1.3918869E-07
  1.0215000E-02    1.3190676E-07
  1.0250000E-02    1.2837242E-07
  1.0285000E-02    1.0492742E-07
  1.0320000E-02    8.5945025E-08
  1.0355000E-02    9.0727887E-08
  1.0390000E-02    8.2670198E-08
  1.0425000E-02    5.2611163E-08
  1.0460000E-02    3.9391118E-08
  1.0495000E-02    3.8507196E-08
  1.0530000E-02    2.0492008E-08
  1.0565000E-02    1.0459114E-09
  1.0600000E-02   -7.0884401E-09
  1.0635000E-02   -2.2920410E-08
  1.0670000E-02   -4.1705157E-08
  1.0705000E-02   -4.8117968E-08
  1.0740000E-02   -5.7723842E-08
  1.0775000E-02   -7.8986602E-08
  1.0810000E-02   -9.5718619E-08
  1.0845000E-02   -1.0761389E-07
  1.0880000E-02   -1.2516585E-07
  1.0915000E-02   -1.4055168E-07
  1.0950000E-02   -1.5029234E-07
  1.0985000E-02   -1.7125889E-07
  1.1020000E-02   -2.0473910E-07
  1.1055000E-02   -2.3038223E-07
  1.1090000E-02   -2.5013622E-07
  1.1125000E-02   -2.8348151E-07
  1.1160000E-02   -3.2496865E-07
  1.1195000E-02   -3.6421599E-07
  1.1230000E-02   -4.1428316E-07
  1.1265000E-02   -4.7739047E-07
  1.1300000E-02   -5.4056147E-07
  1.1335000E-02   -6.1342615E-07
  1.1370000E-02   -7.0924034E-07
  1.1405000E-02   -8.1894910E-07
  1.1440000E-02   -9.4159407E-07
  1.1475000E-02   -1.0901790E-06
  1.1510000E-02   -1.2656184E-06
  1.1545000E-02   -1.4679409E-06
  1.1580000E-02   -1.7112118E-06
  1.1615000E-02   -2.0048747E-06
  1.1650000E-02   -2.3453169E-06
  1.1685000E-02   -2.7372776E-06
  1.1720000E-02   -3.2032356E-06
  1.1755000E-02   -3.7556576E-06
  1.1790000E-02   -4.3915165E-06
  1.1825000E-02   -5.1344969E-06
  1.1860000E-02   -6.0211260E-06
  1.1895000E-02   -7.0475353E-06
  1.1930000E-02   -8.2179286E-06
  1.1965000E-02   -9.5907362E-06
  1.2000000E-02   -1.1199834E-05
  1.2035000E-02   -1.3041639E-05
  1.2070000E-02   -1.5161261E-05
  1.2105000E-02   -1.7622775E-05
  1.2140000E-02   -2.0449144E-05
  1.2175000E-02   -2.3681840E-05
  1.2210000E-02   -2.7397147E-05
  1.2245000E-02   -3.1648167E-05
  1.2280000E-02   -3.6489004E-05
  1.2315000E-02   -4.2008691E-05
  1.2350000E-02   -4.8292612E-05
  1.2385000E-02   -5.5421486E-05
  1.2420000E-02   -6.3503299E-05
  1.2455000E-02   -7.2652285E-05
  1.2490000E-02   -8.2972976E-05
  1.2525000E-02   -9.4593444E-05
  1.2560000E-02   -1.0767239E-04
  1.2595000E-02   -1.2236263E-04
  1.2630000E-02   -1.3881396E-04
  1.2665000E-02   -1.5721389E-04
  1.2700000E-02   -1.7776802E-04
  1.2735000E-02   -2.0066410E-04
  1.2770000E-02   -2.2611801E-04
  1.2805000E-02   -2.5438934E-04
  1.2840000E-02   -2.8571425E-04
  1.2875000E-02   -3.2032828E-04
  1.2910000E-02   -3.5853151E-04
  1.2945000E-02   -4.0062758E-04
  1.2980000E-02   -4.4689127E-04
  1.3015000E-02   -4.9764378E-04
  1.3050000E-02   -5.5323041E-04
  1.3085000E-02   -6.1396079E-04
  1.3120000E-02   -6.8017334E-04
  1.3155000E-02   -7.5225020E-04
  1.3190000E-02   -8.3053811E-04
  1.3225000E-02   -9.1537402E-04
  1.3260000E-02   -1.0071348E-03
  1.3295000E-02   -1.1061793E-03
  1.3330000E-02   -1.2128321E-03
  1.3365000E-02   -1.3274386E-03
  1.3400000E-02   -1.4503435E-03
  1.3435000E-02   -1.5818413E-03
  1.3470000E-02   -1.7222026E-03
  1.3505000E-02   -1.8716976E-03
  1.3540000E-02   -2.0305577E-03
  1.3575000E-02   -2.1989678E-03
  1.3610000E-02   -2.3770772E-03
  1.3645000E-02   -2.5649907E-03
  1.3680000E-02   -2.7627507E-03
  1.3715000E-02   -2.9703456E-03
  1.3750000E-02   -3.1877062E-03
  1.3785000E-02   -3.4146868E-03
  1.3820000E-02   -3.6510692E-03
  1.3855000E-02   -3.8965654E-03
  1.3890000E-02   -4.1507985E-03
  1.3925000E-02   -4.4132853E-03
  1.3960000E-02   -4.6834666E-03
  1.3995000E-02   -4.9607060E-03
  1.4030000E-02   -5.2442541E-03
  1.4065000E-02   -5.5332505E-03
  1.4100000E-02   -5.8267522E-03
  1.4135000E-02   -6.1237132E-03
  1.4170000E-02   -6.4229728E-03
  1.4205000E-02   -6.7232838E-03
  1.4240000E-02   -7.0233219E-03
  1.4275000E-02   -7.3216497E-03
  1.4310000E-02   -7.6167313E-03
  1.4345000E-02   -7.9069780E-03
  1.4380000E-02   -8.1907352E-03
  1.4415000E-02   -8.4662549E-03
  1.4450000E-02   -8.7317433E-03
  1.4485000E-02   -8.9853825E-03
  1.4520000E-02   -9.2253173E-03
  1.4555000E-02   -9.4496505E-03
  1.4590000E-02   -9.6564805E-03
  1.4625000E-02   -9.8439325E-03
  1.4660000E-02   -1.0010173E-02
  1.4695000E-02   -1.0153384E-02
  1.4730000E-02   -1.0271787E-02
  1.4765000E-02   -1.0363695E-02
  1.4800000E-02   -1.0427523E-02
  1.4835000E-02   -1.0461766E-02
  1.4870000E-02   -1.0465048E-02
  1.4905000E-02   -1.0436138E-02
  1.4940000E-02   -1.0373934E-02
  1.4975000E-02   -1.0277517E-02
  1.5010000E-02   -1.0146149E-02
  1.5045000E-02   -9.9792639E-03
  1.5080000E-02   -9.7765056E-03
  1.5115000E-02   -9.5377443E-03
  1.5150000E-02   -9.2630498E-03
  1.5185000E-02   -8.9527080E-03
  1.5220000E-02   -8.6072227E-03
  1.5255000E-02   -8.2273548E-03
  1.5290000E-02   -7.8141056E-03
  1.5325000E-02   -7.3686615E-03
  1.5360000E-02   -6.8924217E-03
  1.5395000E-02   -6.3870419E-03
  1.5430000E-02   -5.8543622E-03
  1.5465000E-02   -5.2963975E-03
  1.5500000E-02   -4.7153779E-03
  1.5535000E-02   -4.1136914E-03
  1.5570000E-02   -3.4938527E-03
  1.5605000E-02   -2.8585424E-03
  1.5640000E-02   -2.2105598E-03
  1.5675001E-02   -1.5527578E-03
  1.5710000E-02   -8.8808022E-04
  1.5745001E-02   -2.1954741E-04
  1.5780000E-02    4.4982161E-04
  1.5814999E-02    1.1170056E-03
  1.5850000E-02    1.7789815E-03
  1.5884999E-02    2.4327752E-03
  1.5920000E-02    3.0754781E-03
  1.5954999E-02    3.7042552E-03
  1.5990000E-02    4.3163910E-03
  1.6024999E-02    4.9092919E-03
  1.6060000E-02    5.4804911E-03
  1.6094999E-02    6.0276999E-03
  1.6130000E-02    6.5488052E-03
  1.6164999E-02    7.0418566E-03
  1.6200000E-02    7.5051263E-03
  1.6235000E-02    7.9371016E-03
  1.6270000E-02    8.3364667E-03
  1.6305000E-02    8.7021459E-03
  1.6340001E-02    9.0332842E-03
  1.6375000E-02    9.3292091E-03
  1.6410001E-02    9.5895203E-03
  1.6445000E-02    9.8140687E-03
  1.6480001E-02    1.0002864E-02
  1.6515000E-02    1.0156115E-02
  1.6550001E-02    1.0274300E-02
  1.6585000E-02    1.0358087E-02
  1.6620001E-02    1.0408252E-02
  1.6655000E-02    1.0425775E-02
  1.6690001E-02    1.0411846E-02
  1.6725000E-02    1.0367746E-02
  1.6759999E-02    1.0294868E-02
  1.6795000E-02    1.0194746E-02
  1.6829999E-02    1.0069021E-02
  1.6865000E-02    9.9193715E-03
  1.6899999E-02    9.7475508E-03
  1.6935000E-02    9.5553948E-03
  1.6969999E-02    9.3447482E-03
  1.7005000E-02    9.1174496E-03
  1.7039999E-02    8.8753738E-03
  1.7075000E-02    8.6203814E-03
  1.7109999E-02    8.3542708E-03
  1.7145000E-02    8.0788387E-03
  1.7180000E-02    7.7958587E-03
  1.7215000E-02    7.5069903E-03
  1.7250000E-02    7.2138226E-03
  1.7285001E-02    6.9179377E-03
  1.7320000E-02    6.6208136E-03
  1.7355001E-02    6.3238032E-03
  1.7390000E-02    6.0281865E-03
  1.7425001E-02    5.7351678E-03
  1.7460000E-02    5.4458380E-03
  1.7495001E-02    5.1611932E-03
  1.7530000E-02    4.8821322E-03
  1.7565001E-02    4.6094554E-03
  1.7600000E-02    4.3438785E-03
  1.7635001E-02    4.0860190E-03
  1.7670000E-02    3.8363873E-03
  1.7704999E-02    3.5954183E-03
  1.7740000E-02    3.3634629E-03
  1.7774999E-02    3.1407829E-03
  1.7810000E-02    2.9275804E-03
  1.7844999E-02    2.7239921E-03
  1.7880000E-02    2.5300607E-03
  1.7914999E-02    2.3457732E-03
  1.7950000E-02    2.1710824E-03
  1.7984999E-02    2.0058812E-03
  1.8020000E-02    1.8500150E-03
  1.8054999E-02    1.7033046E-03
  1.8090000E-02    1.5655132E-03
  1.8124999E-02    1.4363650E-03
  1.8160000E-02    1.3155986E-03
  1.8195000E-02    1.2029276E-03
  1.8230001E-02    1.0980113E-03
  1.8265000E-02    1.0005231E-03
  1.8300001E-02    9.1014814E-04
  1.8335000E-02    8.2652265E-04
  1.8370001E-02    7.4928184E-04
  1.8405000E-02    6.7810633E-04
  1.8440001E-02    6.1265606E-04
  1.8475000E-02    5.5256451E-04
  1.8510001E-02    4.9751037E-04
  1.8545000E-02    4.4718699E-04
  1.8580001E-02    4.0125087E-04
  1.8615000E-02    3.5939240E-04
  1.8650001E-02    3.2135865E-04
  1.8685000E-02    2.8686100E-04
  1.8719999E-02    2.5559141E-04
  1.8755000E-02    2.2731774E-04
  1.8789999E-02    2.0183084E-04
  1.8825000E-02    1.7887475E-04
  1.8859999E-02    1.5823040E-04
  1.8895000E-02    1.3973552E-04
  1.8929999E-02    1.2318582E-04
  1.8965000E-02    1.0837147E-04
  1.8999999E-02    9.5159725E-05
  1.9035000E-02    8.3417071E-05
  1.9069999E-02    7.2972638E-05
  1.9105000E-02    6.3707848E-05
  1.9140000E-02    5.5536755E-05
  1.9175000E-02    4.8327231E-05
  1.9210000E-02    4.1955118E-05
  1.9245001E-02    3.6357811E-05
  1.9280000E-02    3.1473886E-05
  1.9315001E-02    2.7208143E-05
  1.9350000E-02    2.3477751E-05
  1.9385001E-02    2.0237041E-05
  1.9420000E-02    1.7439465E-05
  1.9455001E-02    1.5017609E-05
  1.9490000E-02    1.2927114E-05
  1.9525001E-02    1.1151712E-05
  1.9560000E-02    9.6450622E-06
  1.9595001E-02    8.3508112E-06
  1.9630000E-02    7.2603766E-06
  1.9664999E-02    6.3613602E-06
  1.9700000E-02    5.6002318E-06
  1.9734999E-02    4.9562091E-06
  1.9770000E-02    4.4463313E-06
  1.9804999E-02    4.0461769E-06
  1.9840000E-02    3.7109655E-06
  1.9874999E-02    3.4424206E-06
  1.9910000E-02    3.2522732E-06
  1.9944999E-02    3.1142151E-06
  1.9980000E-02    3.0055444E-06
  2.0014999E-02    2.9343428E-06
  2.0050000E-02    2.8971237E-06
  2.0085000E-02    2.8742177E-06
  2.0120000E-02    2.8691979E-06
  2.0155000E-02    2.8902721E-06
  2.0190001E-02    2.9177886E-06
  2.0225000E-02    2.9367445E-06
  2.0260001E-02    2.9581076E-06
  2.0295000E-02    2.9885593E-06
  2.0330001E-02    3.0173694E-06
  2.0365000E-02    3.0327676E-06
  2.0400001E-02    3.0379206E-06
  2.0435000E-02    3.0455383E-06
  2.0470001E-02    3.0497638E-06
  2.0505000E-02    3.0336762E-06
  2.0540001E-02    3.0043325E-06
  2.0575000E-02    2.9743198E-06
  2.0609999E-02    2.9369312E-06
  2.0645000E-02    2.8865109E-06
  2.0679999E-02    2.8191889E-06
  2.0715000E-02    2.7316096E-06
  2.0749999E-02    2.6388727E-06
  2.0785000E-02    2.5449292E-06
  2.0819999E-02    2.4312039E-06
  2.0855000E-02    2.3059670E-06
  2.0889999E-02    2.1842495E-06
  2.0925000E-02    2.0455004E-06
  2.0959999E-02    1.8858362E-06
  2.0995000E-02    1.7299927E-06
  2.1029999E-02    1.5715846E-06
  2.1065000E-02    1.3965139E-06
  2.1100000E-02    1.2229515E-06
  2.1135001E-02    1.0553983E-06
  2.1170000E-02    8.7165495E-07
  2.1205001E-02    6.7395035E-07
  2.1240000E-02    4.8700593E-07
  2.1275001E-02    3.0939086E-07
  2.1310000E-02    1.1772632E-07
  2.1345001E-02   -8.4334481E-08
  2.1380000E-02   -2.7264423E-07
  2.1415001E-02   -4.5204996E-07
  2.1450000E-02   -6.3749337E-07
  2.1485001E-02   -8.1476151E-07
  2.1520000E-02   -9.7682289E-07
  2.1555001E-02   -1.1402431E-06
  2.1590000E-02   -1.3041955E-06
  2.1624999E-02   -1.4583345E-06
  2.1660000E-02   -1.6051284E-06
  2.1694999E-02   -1.7408551E-06
  2.1730000E-02   -1.8629908E-06
  2.1764999E-02   -1.9796962E-06
  2.1800000E-02   -2.0845503E-06
  2.1834999E-02   -2.1693284E-06
  2.1870000E-02   -2.2435238E-06
  2.1904999E-02   -2.3069097E-06
  2.1940000E-02   -2.3540147E-06
  2.1974999E-02   -2.3943426E-06
  2.2010000E-02   -2.4218032E-06
  2.2045000E-02   -2.4198389E-06
  2.2080000E-02   -2.4049723E-06
  2.2115000E-02   -2.3940613E-06
  2.2150001E-02   -2.3672710E-06
  2.2185000E-02   -2.3176872E-06
  2.2220001E-02   -2.2652034E-06
  2.2255000E-02   -2.2019594E-06
  2.2290001E-02   -2.1075214E-06
  2.2325000E-02   -1.9994175E-06
  2.2360001E-02   -1.8950944E-06
  2.2395000E-02   -1.7757750E-06
  2.2430001E-02   -1.6348069E-06
  2.2465000E-02   -1.4890981E-06
  2.2500001E-02   -1.3362311E-06
  2.2535000E-02   -1.1715416E-06
  2.2569999E-02   -1.0094735E-06
  2.2605000E-02   -8.4590124E-07
  2.2639999E-02   -6.6634766E-07
  2.2675000E-02   -4.8164657E-07
  2.2709999E-02   -2.9323445E-07
  2.2745000E-02   -8.7464713E-08
  2.2779999E-02    1.1488626E-07
  2.2815000E-02    2.9784999E-07
  2.2849999E-02    4.9569985E-07
  2.2885000E-02    7.1413234E-07
  2.2919999E-02    9.0818475E-07
  2.2955000E-02    1.0798459E-06
  2.2990000E-02    1.2671221E-06
  2.3025000E-02    1.4562647E-06
  2.3060000E-02    1.6243046E-06
  2.3095001E-02    1.7928005E-06
  2.3130000E-02    1.9636084E-06
  2.3165001E-02    2.1079913E-06
  2.3200000E-02    2.2356739E-06
  2.3235001E-02    2.3686896E-06
  2.3270000E-02    2.4845867E-06
  2.3305001E-02    2.5669633E-06
  2.3340000E-02    2.6429341E-06
  2.3375001E-02    2.7219364E-06
  2.3410000E-02    2.7727303E-06
  2.3445001E-02    2.7854919E-06
  2.3480000E-02    2.7905332E-06
  2.3514999E-02    2.7996423E-06
  2.3550000E-02    2.7858553E-06
  2.3584999E-02    2.7371757E-06
  2.3620000E-02    2.6746047E-06
  2.3654999E-02    2.6055584E-06
  2.3690000E-02    2.5163374E-06
  2.3724999E-02    2.4070769E-06
  2.3760000E-02    2.2856082E-06
  2.3794999E-02    2.1491494E-06
  2.3830000E-02    1.9984136E-06
  2.3864999E-02    1.8393030E-06
  2.3900000E-02    1.6716135E-06
  2.3934999E-02    1.4963989E-06
  2.3970000E-02    1.3172975E-06
  2.4005000E-02    1.1358371E-06
  2.4040001E-02    9.5654013E-07
  2.4075000E-02    7.7717823E-07
  2.4110001E-02    5.8767563E-07
  2.4145000E-02    3.9926258E-07
  2.4180001E-02    2.2999924E-07
  2.4215000E-02    6.0860302E-08
  2.4250001E-02   -1.2464048E-07
  2.4285000E-02   -2.9150252E-07
  2.4320001E-02   -4.2059526E-07
  2.4355000E-02   -5.5073758E-07
  2.4390001E-02   -6.9214479E-07
  2.4425000E-02   -8.0576433E-07
  2.4460001E-02   -8.9221794E-07
  2.4495000E-02   -9.7953784E-07
  2.4529999E-02   -1.0518110E-06
  2.4565000E-02   -1.0942279E-06
  2.4599999E-02   -1.1299015E-06
  2.4635000E-02   -1.1566071E-06
  2.4669999E-02   -1.1517106E-06
  2.4705000E-02   -1.1329710E-06
  2.4739999E-02   -1.1198777E-06
  2.4775000E-02   -1.0911019E-06
  2.4809999E-02   -1.0379426E-06
  2.4845000E-02   -9.8344606E-07
  2.4879999E-02   -9.2876661E-07
  2.4915000E-02   -8.5020037E-07
  2.4950000E-02   -7.5076002E-07
  2.4985000E-02   -6.6002076E-07
  2.5020000E-02   -5.8126506E-07
  2.5055001E-02   -4.8927791E-07
  2.5090000E-02   -3.8436696E-07
  2.5125001E-02   -2.9093425E-07
  2.5160000E-02   -2.0918070E-07
  2.5195001E-02   -1.2703441E-07
  2.5230000E-02   -5.0614926E-08
  2.5265001E-02    1.6799898E-08
  2.5300000E-02    7.9629011E-08
  2.5335001E-02    1.3044101E-07
  2.5370000E-02    1.6620596E-07
  2.5405001E-02    1.9393386E-07
  2.5440000E-02    2.0738187E-07
  2.5474999E-02    1.9952898E-07
  2.5510000E-02    1.8086695E-07
  2.5544999E-02    1.5892599E-07
  2.5580000E-02    1.2885434E-07
  2.5614999E-02    8.5099117E-08
  2.5650000E-02    2.5445470E-08
  2.5684999E-02   -4.2791779E-08
  2.5720000E-02   -1.0953215E-07
  2.5754999E-02   -1.8387280E-07
  2.5790000E-02   -2.7855330E-07
  2.5824999E-02   -3.7948581E-07
  2.5860000E-02   -4.6936768E-07
  2.5895000E-02   -5.6046042E-07
  2.5930000E-02   -6.6555526E-07
  2.5965000E-02   -7.6439352E-07
  2.6000001E-02   -8.3995945E-07
  2.6035000E-02   -9.1529677E-07
  2.6070001E-02   -1.0071531E-06
  2.6105000E-02   -1.0900617E-06
  2.6140001E-02   -1.1525809E-06
  2.6175000E-02   -1.2174370E-06
  2.6210001E-02   -1.2796339E-06
  2.6245000E-02   -1.3159820E-06
  2.6280001E-02   -1.3424780E-06
  2.6315000E-02   -1.3753464E-06
  2.6350001E-02   -1.3921624E-06
  2.6385000E-02   -1.3863206E-06
  2.6419999E-02   -1.3802198E-06
  2.6455000E-02   -1.3726091E-06
  2.6489999E-02   -1.3445305E-06
  2.6525000E-02   -1.3005917E-06
  2.6559999E-02   -1.2570545E-06
  2.6595000E-02   -1.2084580E-06
  2.6629999E-02   -1.1392528E-06
  2.6665000E-02   -1.0585416E-06
  2.6699999E-02   -9.8154840E-07
  2.6735000E-02   -8.9306013E-07
  2.6769999E-02   -7.8612442E-07
  2.6805000E-02   -6.8492432E-07
  2.6839999E-02   -5.8209542E-07
  2.6875000E-02   -4.5133018E-07
  2.6910000E-02   -3.1955963E-07
  2.6945001E-02   -2.1163137E-07
  2.6980000E-02   -9.5723877E-08