 -4.8000002E-03    1.0000000E-24
 -4.7650002E-03    1.0000002E-24
 -4.7300002E-03    1.0000001E-24
 -4.6950001E-03    1.0000000E-24
 -4.6600001E-03    1.0000002E-24
 -4.6250001E-03    1.0000002E-24
 -4.5900000E-03    1.0000003E-24
 -4.5550000E-03    1.0000001E-24
 -4.5200000E-03    9.9999992E-25
 -4.4849999E-03    1.0000003E-24
 -4.4499999E-03    1.0000002E-24
 -4.4149999E-03    9.9999982E-25
 -4.3799998E-03    1.0000000E-24
 -4.3449998E-03    1.0000006E-24
 -4.3100002E-03    1.0000005E-24
 -4.2750002E-03    1.0000001E-24
 -4.2400002E-03    9.9999992E-25
 -4.2050001E-03    1.0000001E-24
 -4.1700001E-03    1.0000001E-24
 -4.1350001E-03    9.9999992E-25
 -4.1000000E-03    1.0000000E-24
 -4.0650000E-03    1.0000001E-24
 -4.0300000E-03    1.0000001E-24
 -3.9949999E-03    9.9999992E-25
 -3.9599999E-03    9.9999982E-25
 -3.9249999E-03    9.9999992E-25
 -3.8900001E-03    1.0000002E-24
 -3.8550000E-03    1.0000003E-24
 -3.8200000E-03    1.0000003E-24
 -3.7849999E-03    1.0000004E-24
 -3.7499999E-03    1.0000000E-24
 -3.7150001E-03    1.0000001E-24
 -3.6800001E-03    1.0000005E-24
 -3.6450000E-03    1.0000001E-24
 -3.6100000E-03    9.9999963E-25
 -3.5750000E-03    1.0000002E-24
 -3.5399999E-03    9.9999982E-25
 -3.5049999E-03    1.0000000E-24
 -3.4700001E-03    1.0000004E-24
 -3.4350001E-03    1.0000001E-24
 -3.4000000E-03    1.0000002E-24
 -3.3650000E-03    1.0000004E-24
 -3.3300000E-03    9.9999992E-25
 -3.2949999E-03    1.0000000E-24
 -3.2599999E-03    1.0000000E-24
 -3.2250001E-03    9.9999972E-25
 -3.1900001E-03    1.0000001E-24
 -3.1550000E-03    1.0000001E-24
 -3.1200000E-03    9.9999982E-25
 -3.0850000E-03    1.0000007E-24
 -3.0499999E-03    1.0000008E-24
 -3.0149999E-03    1.0000001E-24
 -2.9800001E-03    1.0000001E-24
 -2.9450001E-03    9.9999943E-25
 -2.9100000E-03    9.9999903E-25
 -2.8750000E-03    1.0000021E-24
 -2.8400000E-03    1.0000023E-24
 -2.8049999E-03    9.9999420E-25
 -2.7699999E-03    1.0000043E-24
 -2.7350001E-03    1.0000201E-24
 -2.7000001E-03    9.9996906E-25
 -2.6650000E-03    9.9995318E-25
 -2.6300000E-03    1.0001198E-24
 -2.5950000E-03    9.9997685E-25
 -2.5599999E-03    9.9965982E-25
 -2.5249999E-03    1.0003577E-24
 -2.4900001E-03    1.0000886E-24
 -2.4550001E-03    9.9851459E-25
 -2.4200000E-03    1.0009364E-24
 -2.3850000E-03    1.0024968E-24
 -2.3500000E-03    9.9360650E-25
 -2.3149999E-03    9.9776952E-25
 -2.2799999E-03    1.0174688E-24
 -2.2450001E-03    9.8150439E-25
 -2.2100001E-03    9.5533896E-25
 -2.1750000E-03    1.0671378E-24
 -2.1400000E-03    1.0166769E-24
 -2.1050000E-03    8.1539917E-25
 -2.0699999E-03    1.0696392E-24
 -2.0349999E-03    1.3438833E-24
 -2.0000001E-03    5.6891608E-25
 -1.9650001E-03    2.7659990E-25
 -1.9300000E-03    2.1826880E-24
 -1.8950000E-03    2.0285241E-24
 -1.8600000E-03   -1.7199621E-24
 -1.8250000E-03    1.0516854E-24
 -1.7900000E-03    5.6879041E-24
 -1.7550000E-03   -4.2841187E-25
 -1.7199999E-03   -4.8323615E-24
 -1.6850000E-03    5.3372136E-24
 -1.6500000E-03    1.0670821E-23
 -1.6150000E-03   -9.3506176E-24
 -1.5800000E-03   -7.9050631E-24
 -1.5450000E-03    2.3169399E-23
 -1.5100000E-03    5.4659695E-24
 -1.4750001E-03   -2.9351040E-23
 -1.4400000E-03    8.3459953E-24
 -1.4050000E-03    5.0357558E-23
 -1.3700000E-03   -2.6453237E-23
 -1.3350000E-03   -4.5315761E-23
 -1.3000000E-03    8.9682340E-23
 -1.2650000E-03    4.3888772E-23
 -1.2300001E-03   -1.7407554E-22
 -1.1950000E-03   -4.1841668E-23
 -1.1600000E-03    2.3089845E-22
 -1.1250000E-03   -7.5535205E-23
 -1.0900000E-03   -1.6498354E-22
 -1.0550000E-03    3.0223556E-22
 -1.0200000E-03    2.9122849E-22
 -9.8500005E-04   -5.9356878E-22
 -9.5000002E-04   -2.6846131E-22
 -9.1499998E-04    1.1709426E-21
 -8.8000001E-04    2.7207495E-22
 -8.4499997E-04   -2.0324094E-21
 -8.1000000E-04   -3.1868343E-23
 -7.7500002E-04    3.0039379E-21
 -7.3999999E-04   -1.0230867E-22
 -7.0500001E-04   -3.8448833E-21
 -6.6999998E-04   -4.2954281E-24
 -6.3500000E-04    4.8741767E-21
 -6.0000003E-04   -6.4276346E-22
 -5.6499999E-04   -5.5194891E-21
 -5.3000002E-04    7.6672363E-22
 -4.9499999E-04    5.2289919E-21
 -4.6000001E-04   -1.8609070E-21
 -4.2500001E-04   -3.7589781E-21
 -3.9000000E-04    5.1416372E-21
 -3.5500000E-04   -1.3825326E-21
 -3.1999999E-04   -1.0981580E-20
 -2.8499999E-04    7.8219524E-21
 -2.5000001E-04    2.8700502E-20
 -2.1499999E-04   -1.2653345E-20
 -1.8000000E-04   -5.5942826E-20
 -1.4500000E-04    2.1620934E-20
 -1.1000000E-04    9.0215788E-20
 -7.5000004E-05   -1.8170151E-20
 -3.9999999E-05   -1.4775487E-19
 -4.9999999E-06    9.7509440E-21
  2.9999999E-05    2.0416613E-19
  6.5000000E-05    4.5330092E-20
  9.9999997E-05   -2.8025112E-19
  1.3499999E-04   -1.5799942E-19
  1.7000000E-04    3.5280993E-19
  2.0500000E-04    2.6895237E-19
  2.3999999E-04   -3.6122763E-19
  2.7500000E-04   -4.7085064E-19
  3.1000000E-04    2.8965386E-19
  3.4500001E-04    7.4394117E-19
  3.8000001E-04    9.9203887E-20
  4.1499999E-04   -9.4190177E-19
  4.4999999E-04   -6.6838065E-19
  4.8500000E-04    8.8720652E-19
  5.2000000E-04    1.4885690E-18
  5.5499998E-04   -5.6757401E-19
  5.9000001E-04   -3.0628976E-18
  6.2499999E-04   -4.3570710E-19
  6.6000002E-04    5.0967693E-18
  6.9500000E-04    2.7813328E-18
  7.3000003E-04   -6.8083077E-18
  7.6500000E-04   -6.2989076E-18
  7.9999998E-04    7.7270498E-18
  8.3500001E-04    1.1843753E-17
  8.6999999E-04   -7.3736178E-18
  9.0500002E-04   -1.9768234E-17
  9.4000000E-04    3.7146948E-18
  9.7499997E-04    2.8946504E-17
  1.0100000E-03    4.5267442E-18
  1.0450000E-03   -3.7544785E-17
  1.0800000E-03   -1.8467151E-17
  1.1150000E-03    4.3310489E-17
  1.1500000E-03    4.1297697E-17
  1.1849999E-03   -3.8338399E-17
  1.2200000E-03   -6.7582218E-17
  1.2550000E-03    2.1913788E-17
  1.2900000E-03    9.7105578E-17
  1.3250000E-03    1.1339226E-17
  1.3600000E-03   -1.2425930E-16
  1.3950000E-03   -7.2496286E-17
  1.4299999E-03    1.3232805E-16
  1.4650000E-03    1.5606290E-16
  1.5000000E-03   -1.0700390E-16
  1.5350000E-03   -2.6060724E-16
  1.5700000E-03    2.5121846E-17
  1.6050000E-03    3.6885969E-16
  1.6400000E-03    1.2937839E-16
  1.6749999E-03   -4.5676802E-16
  1.7100000E-03   -3.6818542E-16
  1.7450000E-03    4.8079443E-16
  1.7800000E-03    6.9376032E-16
  1.8150000E-03   -3.7069643E-16
  1.8500000E-03   -1.0691420E-15
  1.8850000E-03    8.2784699E-17
  1.9200000E-03    1.4557129E-15
  1.9550000E-03    4.4795650E-16
  1.9900000E-03   -1.7362537E-15
  2.0250001E-03   -1.2280849E-15
  2.0600001E-03    1.7934521E-15
  2.0949999E-03    2.2350667E-15
  2.1299999E-03   -1.4550340E-15
  2.1650000E-03   -3.3569987E-15
  2.2000000E-03    5.4597700E-16
  2.2350000E-03    4.3971433E-15
  2.2700001E-03    1.0388143E-15
  2.3050001E-03   -5.0468235E-15
  2.3399999E-03   -3.3267031E-15
  2.3749999E-03    4.8979799E-15
  2.4100000E-03    6.0872031E-15
  2.4450000E-03   -3.5620018E-15
  2.4800000E-03   -9.0193195E-15
  2.5150001E-03    6.2915527E-16
  2.5500001E-03    1.1470583E-14
  2.5849999E-03    4.1008727E-15
  2.6199999E-03   -1.2585094E-14
  2.6550000E-03   -1.0495568E-14
  2.6900000E-03    1.1326371E-14
  2.7250000E-03    1.7928638E-14
  2.7600001E-03   -6.6667532E-15
  2.7950001E-03   -2.5064581E-14
  2.8299999E-03   -1.9639395E-15
  2.8649999E-03    3.0098940E-14
  2.9000000E-03    1.4500811E-14
  2.9350000E-03   -3.0887419E-14
  2.9700000E-03   -3.0003486E-14
  3.0050001E-03    2.4992405E-14
  3.0400001E-03    4.6101320E-14
  3.0749999E-03   -1.0633033E-14
  3.1099999E-03   -5.8775325E-14
  3.1450000E-03   -1.2490982E-14
  3.1800000E-03    6.3009582E-14
  3.2150000E-03    4.2066868E-14
  3.2500001E-03   -5.3982064E-14
  3.2850001E-03   -7.3562630E-14
  3.3199999E-03    2.7669221E-14
  3.3549999E-03    9.9559128E-14
  3.3900000E-03    1.7453522E-14
  3.4250000E-03   -1.0941571E-13
  3.4600000E-03   -7.7590461E-14
  3.4950001E-03    9.2183456E-14
  3.5300001E-03    1.4206324E-13
  3.5649999E-03   -4.0750721E-14
  3.5999999E-03   -1.9555015E-13
  3.6350000E-03   -4.5708486E-14
  3.6700000E-03    2.2056235E-13
  3.7050000E-03    1.6192817E-13
  3.7400001E-03   -1.9644052E-13
  3.7750001E-03   -2.9091277E-13
  3.8099999E-03    1.0463267E-13
  3.8449999E-03    3.9896846E-13
  3.8800000E-03    5.6979920E-14
  3.9149998E-03   -4.4646567E-13
  3.9499998E-03   -2.6927936E-13
  3.9849998E-03    4.0080298E-13
  4.0199999E-03    4.9885969E-13
  4.0549999E-03   -2.3838329E-13
  4.0899999E-03   -6.9972668E-13
  4.1250000E-03   -5.4608441E-14
  4.1600000E-03    8.0532857E-13
  4.1950000E-03    4.6341972E-13
  4.2300001E-03   -7.3983707E-13
  4.2650001E-03   -9.2904493E-13
  4.3000001E-03    4.4567992E-13
  4.3350002E-03    1.3549349E-12
  4.3700002E-03    9.5432431E-14
  4.4049998E-03   -1.6257943E-12
  4.4399998E-03   -8.6012051E-13
  4.4749998E-03    1.6102301E-12
  4.5099999E-03    1.7582871E-12
  4.5449999E-03   -1.1901386E-12
  4.5799999E-03   -2.6152375E-12
  4.6150000E-03    3.2468462E-13
  4.6500000E-03    3.2112058E-12
  4.6850001E-03    9.1869904E-13
  4.7200001E-03   -3.3432989E-12
  4.7550001E-03   -2.3908896E-12
  4.7900002E-03    2.8367532E-12
  4.8250002E-03    3.8541449E-12
  4.8600002E-03   -1.5643759E-12
  4.8949998E-03   -4.9314407E-12
  4.9299998E-03   -4.1700386E-13
  4.9649999E-03    5.1883879E-12
  4.9999999E-03    2.7524615E-12
  5.0349999E-03   -4.3818009E-12
  5.0700000E-03   -4.9378722E-12
  5.1050000E-03    2.5588008E-12
  5.1400000E-03    6.5613574E-12
  5.1750001E-03    1.1720830E-13
  5.2100001E-03   -7.2663850E-12
  5.2450001E-03   -3.4151796E-12
  5.2800002E-03    6.6058435E-12
  5.3150002E-03    6.7470981E-12
  5.3500002E-03   -4.3516401E-12
  5.3849998E-03   -9.1774305E-12
  5.4199998E-03    9.5260507E-13
  5.4549999E-03    1.0048135E-11
  5.4899999E-03    2.7043786E-12
  5.5249999E-03   -9.3326943E-12
  5.5600000E-03   -5.8964123E-12
  5.5950000E-03    7.2527882E-12
  5.6300000E-03    8.0029802E-12
  5.6650001E-03   -4.2126315E-12
  5.7000001E-03   -8.3447502E-12
  5.7350001E-03    1.2758642E-12
  5.7700002E-03    6.9469964E-12
  5.8050002E-03    3.0480276E-13
  5.8400002E-03   -4.9936470E-12
  5.8749998E-03   -3.9547865E-13
  5.9099998E-03    3.5467579E-12
  5.9449999E-03   -3.4002968E-13
  5.9799999E-03   -2.7474420E-12
  6.0149999E-03    1.8425181E-12
  6.0500000E-03    3.2731389E-12
  6.0850000E-03   -3.6111782E-12
  6.1200000E-03   -6.3883842E-12
  6.1550001E-03    2.8837661E-12
  6.1900001E-03    1.0628896E-11
  6.2250001E-03    2.4946516E-12
  6.2600002E-03   -1.1545431E-11
  6.2950002E-03   -9.8136005E-12
  6.3299998E-03    7.5724748E-12
  6.3649998E-03    1.4867467E-11
  6.3999998E-03   -1.8673669E-12
  6.4349999E-03   -1.8312237E-11
  6.4699999E-03   -4.9122577E-12
  6.5049999E-03    2.1822129E-11
  6.5400000E-03    1.6857028E-11
  6.5750000E-03   -1.9748323E-11
  6.6100000E-03   -3.2022170E-11
  6.6450001E-03    5.6172306E-12
  6.6800001E-03    3.8767246E-11
  6.7150001E-03    1.4252257E-11
  6.7500002E-03   -3.1235653E-11
  6.7850002E-03   -2.6810124E-11
  6.8199998E-03    1.8272011E-11
  6.8549998E-03    3.1019087E-11
  6.8899998E-03   -6.7882262E-12
  6.9249999E-03   -3.3421724E-11
  6.9599999E-03   -8.2653771E-12
  6.9949999E-03    2.9389460E-11
  7.0300000E-03    2.6146243E-11
  7.0650000E-03   -1.0367412E-11
  7.1000000E-03   -3.1224096E-11
  7.1350001E-03   -1.2796939E-11
  7.1700001E-03    1.8933495E-11
  7.2050001E-03    2.2834300E-11
  7.2400002E-03   -5.3748633E-12
  7.2750002E-03   -2.4310521E-11
  7.3099998E-03   -3.3660839E-12
  7.3449998E-03    2.8558532E-11
  7.3799998E-03    2.1080197E-11
  7.4149999E-03   -2.1800497E-11
  7.4499999E-03   -4.1531629E-11
  7.4850000E-03   -6.9241943E-12
  7.5200000E-03    3.8002990E-11
  7.5550000E-03    3.3738370E-11
  7.5900001E-03   -1.1638183E-11
  7.6250001E-03   -3.5689274E-11
  7.6600001E-03   -7.0130321E-12
  7.6950002E-03    3.2660995E-11
  7.7300002E-03    2.0108842E-11
  7.7650002E-03   -3.7039233E-11
  7.7999998E-03   -5.0913156E-11
  7.8349998E-03    1.9921211E-11
  7.8699999E-03    8.1661934E-11
  7.9049999E-03    3.1840999E-11
  7.9399999E-03   -6.9195316E-11
  7.9750000E-03   -7.2488050E-11
  8.0100000E-03    2.8778264E-11
  8.0450000E-03    7.6988749E-11
  8.0800001E-03   -2.7769770E-12
  8.1150001E-03   -7.3484822E-11
  8.1500001E-03   -1.0205174E-11
  8.1850002E-03    8.1965663E-11
  8.2200002E-03    4.0919736E-11
  8.2550002E-03   -7.3205046E-11
  8.2900003E-03   -7.4008223E-11
  8.3250003E-03    4.0461166E-11
  8.3600003E-03    8.4587178E-11
  8.3950004E-03   -7.5247404E-12
  8.4300004E-03   -7.7955260E-11
  8.4650004E-03   -1.3025695E-11
  8.5000005E-03    7.5343932E-11
  8.5349996E-03    4.4848149E-11
  8.5699996E-03   -5.4902669E-11
  8.6049996E-03   -7.3370830E-11
  8.6399997E-03    1.3843570E-11
  8.6749997E-03    7.4469576E-11
  8.7099997E-03    2.1462908E-11
  8.7449998E-03   -5.2817441E-11
  8.7799998E-03   -3.0653296E-11
  8.8149998E-03    4.5454092E-11
  8.8499999E-03    5.3463428E-11
  8.8849999E-03   -3.0665213E-11
  8.9199999E-03   -9.4161019E-11
  8.9550000E-03   -1.6087704E-11
  8.9900000E-03    1.1894441E-10
  9.0250000E-03    8.3627431E-11
  9.0600001E-03   -9.1241535E-11
  9.0950001E-03   -1.1574283E-10
  9.1300001E-03    4.4650141E-11
  9.1650002E-03    1.1464021E-10
  9.2000002E-03    1.6463534E-13
  9.2350002E-03   -9.7382623E-11
  9.2700003E-03   -2.6275917E-11
  9.3050003E-03    9.7453226E-11
  9.3400003E-03    5.0344211E-11
  9.3750004E-03   -1.1310716E-10
  9.4100004E-03   -8.3099534E-11
  9.4450004E-03    1.2797112E-10
  9.4799995E-03    1.4201038E-10
  9.5149996E-03   -8.7698779E-11
  9.5499996E-03   -1.8812768E-10
  9.5849996E-03   -1.0350488E-11
  9.6199997E-03    1.9040662E-10
  9.6549997E-03    1.4016999E-10
  9.6899997E-03   -1.2257326E-10
  9.7249998E-03   -2.3651986E-10
  9.7599998E-03    1.1307335E-11
  9.7949998E-03    2.6849473E-10
  9.8299999E-03    1.1319103E-10
  9.8649999E-03   -2.2654532E-10
  9.8999999E-03   -2.2223504E-10
  9.9350000E-03    1.0452686E-10
  9.9700000E-03    2.6092059E-10
  1.0005000E-02    6.6305447E-11
  1.0040000E-02   -1.6224427E-10
  1.0075000E-02   -1.4144505E-10
  1.0110000E-02    3.4468494E-11
  1.0145000E-02    7.3476281E-11
  1.0180000E-02   -6.8723860E-11
  1.0215000E-02   -5.6983359E-11
  1.0250000E-02    1.8059092E-10
  1.0285000E-02    1.7423736E-10
  1.0320000E-02   -1.3666615E-10
  1.0355000E-02   -2.1498774E-10
  1.0390000E-02   -3.6456616E-11
  1.0425000E-02    4.3913307E-11
  1.0460000E-02    1.0042972E-10
  1.0495000E-02    1.1711090E-10
  1.0530000E-02   -5.2970683E-11
  1.0565000E-02   -8.1312915E-11
  1.0600000E-02    5.0842653E-11
  1.0635000E-02   -5.0507914E-11
  1.0670000E-02   -8.9936551E-11
  1.0705000E-02    1.0090216E-10
  1.0740000E-02   -1.8135174E-11
  1.0775000E-02   -1.9266280E-10
  1.0810000E-02    8.9311024E-11
  1.0845000E-02    2.5787886E-10
  1.0880000E-02    7.9044896E-11
  1.0915000E-02   -6.0057119E-11
  1.0950000E-02   -3.1650083E-10
  1.0985000E-02   -3.8000258E-10
  1.1020000E-02    2.0374812E-10
  1.1055000E-02    4.5522236E-10
  1.1090000E-02    1.5123154E-11
  1.1125000E-02   -6.3653159E-11
  1.1160000E-02   -3.7102660E-12
  1.1195000E-02   -3.3578801E-10
  1.1230000E-02   -2.0271342E-10
  1.1265000E-02    2.9302766E-10
  1.1300000E-02    2.5413727E-10
  1.1335000E-02    4.8506234E-11
  1.1370000E-02   -1.1042225E-10
  1.1405000E-02   -3.3234229E-10
  1.1440000E-02   -7.0929720E-11
  1.1475000E-02    1.7027256E-10
  1.1510000E-02   -1.5916721E-10
  1.1545000E-02    5.0860784E-11
  1.1580000E-02    4.7232451E-10
  1.1615000E-02   -1.1985983E-10
  1.1650000E-02   -3.6152209E-10
  1.1685000E-02    2.8201022E-10
  1.1720000E-02    8.3304218E-11
  1.1755000E-02   -3.8842379E-10
  1.1790000E-02   -6.4067918E-11
  1.1825000E-02   -7.2376202E-11
  1.1860000E-02   -7.6971478E-11
  1.1895000E-02    5.0545435E-10
  1.1930000E-02    1.1988474E-10
  1.1965000E-02   -4.5975215E-10
  1.2000000E-02    3.2613603E-10
  1.2035000E-02    3.6108350E-10
  1.2070000E-02   -6.4668010E-10
  1.2105000E-02   -2.1485731E-10
  1.2140000E-02    3.5871314E-10
  1.2175000E-02   -2.9285310E-10
  1.2210000E-02   -7.8467385E-11
  1.2245000E-02    4.4130338E-10
  1.2280000E-02   -2.7242486E-10
  1.2315000E-02   -1.7110796E-10
  1.2350000E-02    7.0901168E-10
  1.2385000E-02    1.5899079E-10
  1.2420000E-02   -3.5505823E-10
  1.2455000E-02    8.4024440E-11
  1.2490000E-02   -2.7324507E-10
  1.2525000E-02   -4.0005790E-10
  1.2560000E-02    3.9447814E-10
  1.2595000E-02   -5.6356305E-11
  1.2630000E-02   -6.1385724E-10
  1.2665000E-02    5.1826621E-10
  1.2700000E-02    7.2031087E-10
  1.2735000E-02   -5.1623328E-10
  1.2770000E-02   -4.4514548E-10
  1.2805000E-02    2.5986699E-10
  1.2840000E-02    2.9669206E-10
  1.2875000E-02    4.3122639E-10
  1.2910000E-02    4.5563670E-12
  1.2945000E-02   -9.6588515E-10
  1.2980000E-02   -2.5651703E-10
  1.3015000E-02    1.0320219E-09
  1.3050000E-02    2.8538202E-10
  1.3085000E-02   -8.2298163E-10
  1.3120000E-02   -4.1843248E-10
  1.3155000E-02    2.0979388E-10
  1.3190000E-02    3.6100820E-10
  1.3225000E-02    3.9301559E-10
  1.3260000E-02    3.7422809E-10
  1.3295000E-02   -6.7235648E-11
  1.3330000E-02   -6.3919425E-10
  1.3365000E-02   -3.1228581E-10
  1.3400000E-02    7.9139773E-10
  1.3435000E-02    4.3323170E-10
  1.3470000E-02   -9.7670672E-10
  1.3505000E-02   -7.9159695E-10
  1.3540000E-02    3.3699502E-10
  1.3575000E-02    1.0684233E-09
  1.3610000E-02    8.2875323E-10
  1.3645000E-02   -4.6730836E-10
  1.3680000E-02   -9.3376495E-10
  1.3715000E-02    2.0915941E-10
  1.3750000E-02    7.7627083E-10
  1.3785000E-02   -3.9836706E-10
  1.3820000E-02   -3.2746619E-10
  1.3855000E-02    3.8023060E-10
  1.3890000E-02   -7.8521878E-10
  1.3925000E-02   -1.5715780E-10
  1.3960000E-02    1.2287815E-09
  1.3995000E-02    6.0053140E-10
  1.4030000E-02   -3.5150319E-10
  1.4065000E-02   -6.6669925E-10
  1.4100000E-02   -1.4303329E-09
  1.4135000E-02   -5.3811394E-10
  1.4170000E-02    2.2233448E-09
  1.4205000E-02    1.3731332E-09
  1.4240000E-02    2.9698778E-11
  1.4275000E-02    4.2840731E-10
  1.4310000E-02   -3.1716929E-09
  1.4345000E-02   -3.5067529E-09
  1.4380000E-02    3.5757399E-09
  1.4415000E-02    3.0159322E-09
  1.4450000E-02   -1.5349193E-09
  1.4485000E-02    1.7924633E-09
  1.4520000E-02    2.2574147E-09
  1.4555000E-02   -2.7250391E-09
  1.4590000E-02   -1.5010213E-09
  1.4625000E-02    1.9057489E-09
  1.4660000E-02   -5.9639388E-10
  1.4695000E-02   -2.0418961E-10
  1.4730000E-02    3.2488670E-10
  1.4765000E-02   -2.1981956E-09
  1.4800000E-02   -1.1779882E-09
  1.4835000E-02    9.4030617E-10
  1.4870000E-02    4.2500478E-10
  1.4905000E-02    2.3950957E-09
  1.4940000E-02    2.3588644E-09
  1.4975000E-02   -1.9954816E-09
  1.5010000E-02   -1.4920993E-09
  1.5045000E-02    3.0678948E-10
  1.5080000E-02   -9.9441833E-10
  1.5115000E-02   -1.7746258E-09
  1.5150000E-02    2.4208440E-09
  1.5185000E-02    3.7644274E-09
  1.5220000E-02   -1.4599881E-09
  1.5255000E-02   -4.8316613E-09
  1.5290000E-02    6.0050259E-10
  1.5325000E-02    4.1327710E-09
  1.5360000E-02   -1.4598570E-09
  1.5395000E-02   -7.2665729E-10
  1.5430000E-02    5.0880202E-09
  1.5465000E-02   -5.4411153E-10
  1.5500000E-02   -4.9769038E-09
  1.5535000E-02    1.7584186E-09
  1.5570000E-02    3.7124848E-10
  1.5605000E-02   -5.2920641E-09
  1.5640000E-02   -3.3454967E-10
  1.5675001E-02    2.4797389E-09
  1.5710000E-02   -1.1527995E-09
  1.5745001E-02    6.0025568E-10
  1.5780000E-02    3.0822180E-09
  1.5814999E-02    1.7010823E-10
  1.5850000E-02   -1.2882095E-09
  1.5884999E-02   -7.5796786E-10
  1.5920000E-02   -1.2387116E-09
  1.5954999E-02   -1.3678740E-09
  1.5990000E-02   -5.7334720E-10
  1.6024999E-02    1.7034648E-09
  1.6060000E-02    1.5702071E-09
  1.6094999E-02   -2.7682523E-09
  1.6130000E-02   -2.4121427E-09
  1.6164999E-02    2.2343236E-09
  1.6200000E-02    2.5062428E-09
  1.6235000E-02    1.0944772E-09
  1.6270000E-02    1.5272925E-09
  1.6305000E-02    5.3071147E-10
  1.6340001E-02   -1.9691957E-09
  1.6375000E-02   -2.6810600E-09
  1.6410001E-02   -2.6992200E-09
  1.6445000E-02    1.9005872E-10
  1.6480001E-02    1.0284089E-09
  1.6515000E-02   -8.9229252E-10
  1.6550001E-02   -1.6530237E-09
  1.6585000E-02   -1.6815823E-09
  1.6620001E-02   -1.4391913E-09
  1.6655000E-02    3.9044687E-09
  1.6690001E-02    7.2288739E-09
  1.6725000E-02   -6.8128314E-10
  1.6759999E-02   -3.6178724E-09
  1.6795000E-02   -3.9375844E-10
  1.6829999E-02   -4.0329873E-09
  1.6865000E-02   -4.2423030E-09
  1.6899999E-02    3.8903885E-09
  1.6935000E-02    5.7352062E-10
  1.6969999E-02   -4.4556430E-09
  1.7005000E-02    4.4615311E-09
  1.7039999E-02    6.9416437E-09
  1.7075000E-02   -2.7928961E-09
  1.7109999E-02   -1.5259171E-09
  1.7145000E-02    2.7373663E-09
  1.7180000E-02   -5.2484985E-09
  1.7215000E-02   -4.9961093E-09
  1.7250000E-02    4.6207851E-09
  1.7285001E-02    1.9853799E-09
  1.7320000E-02   -4.2952082E-09
  1.7355001E-02    8.5626750E-10
  1.7390000E-02    4.0646229E-09
  1.7425001E-02   -6.8565464E-10
  1.7460000E-02   -1.4942899E-09
  1.7495001E-02    2.0680679E-09
  1.7530000E-02    1.6044280E-09
  1.7565001E-02    4.5021475E-10
  1.7600000E-02   -2.1401718E-10
  1.7635001E-02   -3.6683399E-09
  1.7670000E-02   -4.9635172E-09
  1.7704999E-02    4.2346227E-10
  1.7740000E-02    5.6703464E-09
  1.7774999E-02    4.7841104E-09
  1.7810000E-02    2.1372901E-09
  1.7844999E-02    4.3253287E-10
  1.7880000E-02   -1.4875073E-09
  1.7914999E-02   -8.1915386E-10
  1.7950000E-02   -2.4294530E-10
  1.7984999E-02   -2.6347797E-09
  1.8020000E-02   -1.4832612E-09
  1.8054999E-02    2.8457392E-09
  1.8090000E-02    1.2275949E-09
  1.8124999E-02   -9.9051101E-10
  1.8160000E-02    3.1918379E-09
  1.8195000E-02    3.8065560E-09
  1.8230001E-02   -3.1822267E-09
  1.8265000E-02   -6.3365260E-09
  1.8300001E-02   -1.4962092E-09
  1.8335000E-02    3.2594902E-09
  1.8370001E-02    3.1885985E-09
  1.8405000E-02    2.1639153E-09
  1.8440001E-02    3.7873189E-09
  1.8475000E-02    3.0923464E-09
  1.8510001E-02   -2.3159372E-09
  1.8545000E-02   -2.7097231E-09
  1.8580001E-02    2.5615423E-09
  1.8615000E-02    4.4580051E-11
  1.8650001E-02   -6.8776855E-09
  1.8685000E-02   -3.3266434E-09
  1.8719999E-02    3.5387779E-09
  1.8755000E-02    1.0771050E-09
  1.8789999E-02   -7.4873741E-10
  1.8825000E-02    5.9294671E-09
  1.8859999E-02    7.1458937E-09
  1.8895000E-02   -2.6912244E-09
  1.8929999E-02   -7.2063662E-09
  1.8965000E-02   -1.3139775E-09
  1.8999999E-02    8.3260498E-10
  1.9035000E-02   -1.1612575E-09
  1.9069999E-02    3.0973175E-09
  1.9105000E-02    5.3441283E-09
  1.9140000E-02   -1.6684700E-09
  1.9175000E-02   -3.4374774E-09
  1.9210000E-02    2.7385749E-09
  1.9245001E-02    1.6149444E-09
  1.9280000E-02   -3.3242367E-09
  1.9315001E-02   -6.2844674E-11
  1.9350000E-02    3.6282963E-09
  1.9385001E-02    1.6907525E-10
  1.9420000E-02   -2.3729172E-09
  1.9455001E-02    8.1838708E-10
  1.9490000E-02    3.7062111E-09
  1.9525001E-02    1.4733750E-09
  1.9560000E-02   -7.3577622E-10
  1.9595001E-02    1.9614830E-09
  1.9630000E-02    1.4351071E-09
  1.9664999E-02   -4.2104693E-09
  1.9700000E-02   -2.1668929E-09
  1.9734999E-02    2.7784715E-09
  1.9770000E-02   -2.0367577E-09
  1.9804999E-02   -3.3000229E-09
  1.9840000E-02    3.7241199E-09
  1.9874999E-02    1.1556676E-09
  1.9910000E-02   -3.1592302E-09
  1.9944999E-02    3.7797161E-09
  1.9980000E-02    3.5695271E-09
  2.0014999E-02   -3.9992312E-09
  2.0050000E-02    4.5967075E-10
  2.0085000E-02    2.9267890E-09
  2.0120000E-02   -5.7001497E-09
  2.0155000E-02   -2.5598108E-09
  2.0190001E-02    6.6516428E-09
  2.0225000E-02   -1.6354088E-10
  2.0260001E-02   -6.4282064E-09
  2.0295000E-02    1.4351856E-09
  2.0330001E-02    4.0411199E-09
  2.0365000E-02   -2.4735416E-09
  2.0400001E-02   -3.2221807E-09
  2.0435000E-02   -3.5435313E-10
  2.0470001E-02   -1.0396225E-09
  2.0505000E-02   -8.7685731E-10
  2.0540001E-02    1.0458102E-09
  2.0575000E-02    1.5850563E-10
  2.0609999E-02   -1.3007176E-09
  2.0645000E-02   -8.3858552E-11
  2.0679999E-02    6.7449747E-11
  2.0715000E-02   -1.0627562E-09
  2.0749999E-02    1.3505246E-09
  2.0785000E-02    3.1355016E-09
  2.0819999E-02   -7.6252687E-10
  2.0855000E-02   -3.1214413E-09
  2.0889999E-02   -1.5223708E-09
  2.0925000E-02   -2.3055768E-09
  2.0959999E-02   -1.7426107E-09
  2.0995000E-02    2.6740774E-09
  2.1029999E-02    1.6406132E-09
  2.1065000E-02   -2.9361471E-09
  2.1100000E-02   -1.8835367E-09
  2.1135001E-02   -1.1351172E-09
  2.1170000E-02   -3.5211332E-09
  2.1205001E-02    9.5264896E-10
  2.1240000E-02    7.3715922E-09
  2.1275001E-02    2.0163355E-09
  2.1310000E-02   -6.1900525E-09
  2.1345001E-02   -3.3058896E-09
  2.1380000E-02    1.3587687E-10
  2.1415001E-02   -4.7268935E-09
  2.1450000E-02   -3.2218277E-09
  2.1485001E-02    6.3226584E-09
  2.1520000E-02    4.1345003E-09
  2.1555001E-02   -4.5216240E-09
  2.1590000E-02   -1.2284149E-10
  2.1624999E-02    4.7516187E-09
  2.1660000E-02   -2.0085442E-09
  2.1694999E-02   -2.3347448E-09
  2.1730000E-02    4.1825845E-09
  2.1764999E-02   -4.4154247E-10
  2.1800000E-02   -5.5582143E-09
  2.1834999E-02    5.8713845E-10
  2.1870000E-02    1.8575971E-09
  2.1904999E-02   -3.6608296E-09
  2.1940000E-02   -8.7343754E-10
  2.1974999E-02    3.0415317E-09
  2.2010000E-02   -2.0800204E-09
  2.2045000E-02   -3.5764125E-09
  2.2080000E-02    3.4052543E-09
  2.2115000E-02    4.0719303E-09
  2.2150001E-02   -2.5235443E-09
  2.2185000E-02   -1.1455146E-09
  2.2220001E-02    5.5831224E-09
  2.2255000E-02    1.9973678E-09
  2.2290001E-02   -5.1563300E-09
  2.2325000E-02   -6.0568517E-10
  2.2360001E-02    4.3760600E-09
  2.2395000E-02   -2.2447264E-09
  2.2430001E-02   -4.6767856E-09
  2.2465000E-02    3.9350971E-09
  2.2500001E-02    5.7322467E-09
  2.2535000E-02   -1.1248391E-09
  2.2569999E-02   -1.9586901E-09
  2.2605000E-02    2.1949129E-10
  2.2639999E-02   -2.0023789E-09
  2.2675000E-02   -5.9265381E-10
  2.2709999E-02    4.8653188E-09
  2.2745000E-02    2.9210103E-09
  2.2779999E-02   -2.8679155E-09
  2.2815000E-02   -1.4196118E-09
  2.2849999E-02    2.2832389E-09
  2.2885000E-02    1.4953482E-09
  2.2919999E-02    1.5592221E-09
  2.2955000E-02    2.5777307E-09
  2.2990000E-02   -1.0192659E-09
  2.3025000E-02   -3.1547474E-09
  2.3060000E-02    7.1860740E-10
  2.3095001E-02    2.1351096E-10
  2.3130000E-02   -4.8867523E-09
  2.3165001E-02   -2.8991226E-10
  2.3200000E-02    7.6391329E-09
  2.3235001E-02    1.2596237E-09
  2.3270000E-02   -6.8865358E-09
  2.3305001E-02    8.1821092E-11
  2.3340000E-02    4.5104511E-09
  2.3375001E-02   -3.0925769E-09
  2.3410000E-02   -8.1704082E-10
  2.3445001E-02    8.8860634E-09
  2.3480000E-02    2.5525937E-09
  2.3514999E-02   -6.0829586E-09
  2.3550000E-02    1.6529793E-09
  2.3584999E-02    4.7708140E-09
  2.3620000E-02   -4.2286654E-09
  2.3654999E-02   -1.9587041E-09
  2.3690000E-02    6.7432731E-09
  2.3724999E-02    1.2837225E-09
  2.3760000E-02   -5.3427391E-09
  2.3794999E-02    1.9390813E-10
  2.3830000E-02    2.1281956E-09
  2.3864999E-02   -3.8459054E-09
  2.3900000E-02   -2.2089606E-09
  2.3934999E-02    4.2564454E-09
  2.3970000E-02    1.2412602E-09
  2.4005000E-02   -4.7922621E-09
  2.4040001E-02   -1.4947351E-09
  2.4075000E-02    2.9684866E-09
  2.4110001E-02   -7.2362116E-10
  2.4145000E-02   -3.4502197E-09
  2.4180001E-02   -6.5614097E-10
  2.4215000E-02   -9.9613218E-10
  2.4250001E-02   -1.3620300E-09
  2.4285000E-02    4.7219779E-09
  2.4320001E-02    4.7548983E-09
  2.4355000E-02   -4.1679979E-09
  2.4390001E-02   -2.8580185E-09
  2.4425000E-02    5.6274088E-09
  2.4460001E-02    1.0076150E-09
  2.4495000E-02   -5.9779994E-09
  2.4529999E-02    2.5701538E-10
  2.4565000E-02    2.9761453E-09
  2.4599999E-02   -4.4018118E-09
  2.4635000E-02   -4.1848751E-09
  2.4669999E-02    2.1349228E-10
  2.4705000E-02   -3.4620160E-09
  2.4739999E-02   -3.8659742E-09
  2.4775000E-02    2.9532281E-09
  2.4809999E-02    2.8461400E-09
  2.4845000E-02   -2.1932787E-09
  2.4879999E-02   -1.6373104E-09
  2.4915000E-02    4.6255383E-10
  2.4950000E-02   -8.4895113E-10
  2.4985000E-02   -2.7836977E-09
  2.5020000E-02   -2.5801941E-09
  2.5055001E-02   -2.5805583E-10
  2.5090000E-02    3.2568848E-10
  2.5125001E-02   -8.4763307E-10
  2.5160000E-02    1.4589330E-09
  2.5195001E-02    2.5713101E-09
  2.5230000E-02   -2.3314151E-09
  2.5265001E-02   -3.5059311E-09
  2.5300000E-02    3.2352035E-10
  2.5335001E-02   -5.5908256E-10
  2.5370000E-02   -1.4603466E-09
  2.5405001E-02    2.3035038E-09
  2.5440000E-02    1.9272961E-09
  2.5474999E-02   -1.7529033E-09
  2.5510000E-02   -2.0640338E-09
  2.5544999E-02   -2.6960298E-09
  2.5580000E-02   -3.3437215E-09
  2.5614999E-02    3.1193620E-10
  2.5650000E-02    3.6183436E-09
  2.5684999E-02    3.5259391E-09
  2.5720000E-02    1.9044044E-09
  2.5754999E-02   -2.0215658E-09
  2.5790000E-02   -5.1059406E-09
  2.5824999E-02   -2.7693590E-09
  2.5860000E-02    6.6085670E-10
  2.5895000E-02    1.3825166E-10
  2.5930000E-02   -1.5125298E-09
  2.5965000E-02   -5.7617092E-11
  2.6000001E-02    2.2780964E-09
  2.6035000E-02    1.3185976E-10
  2.6070001E-02   -3.1303018E-09
  2.6105000E-02   -3.7295325E-10
  2.6140001E-02    3.4829069E-09
  2.6175000E-02    2.1453945E-09
  2.6210001E-02    4.5464160E-10
  2.6245000E-02    2.5090022E-10
  2.6280001E-02   -1.9116329E-09
  2.6315000E-02   -3.6508119E-09
  2.6350001E-02   -2.0159208E-09
  2.6385000E-02    1.5382162E-09
  2.6419999E-02    2.8806126E-09
  2.6455000E-02   -1.1518188E-09
  2.6489999E-02   -3.5306158E-09
  2.6525000E-02    1.7151518E-09
  2.6559999E-02    4.6042219E-09
  2.6595000E-02    1.0581759E-09
  2.6629999E-02    3.9580439E-10
  2.6665000E-02    1.5988825E-09
  2.6699999E-02   -5.9917687E-10
  2.6735000E-02   -3.2790644E-09
  2.6769999E-02   -4.5144746E-09
  2.6805000E-02   -6.5459771E-10
  2.6839999E-02    6.7611348E-09
  2.6875000E-02    4.9000533E-09
  2.6910000E-02   -1.0965282E-09
  2.6945001E-02    1.8133685E-09
  2.6980000E-02    1.2841017E-09