 -4.8000002E-03    1.0000000E-24
 -4.7650002E-03    1.0000002E-24
 -4.7300002E-03    1.0000001E-24
 -4.6950001E-03    1.0000002E-24
 -4.6600001E-03    1.0000003E-24
 -4.6250001E-03    1.0000000E-24
 -4.5900000E-03    1.0000000E-24
 -4.5550000E-03    1.0000002E-24
 -4.5200000E-03    1.0000001E-24
 -4.4849999E-03    9.9999963E-25
 -4.4499999E-03    1.0000001E-24
 -4.4149999E-03    1.0000007E-24
 -4.3799998E-03    1.0000005E-24
 -4.3449998E-03    1.0000000E-24
 -4.3100002E-03    9.9999982E-25
 -4.2750002E-03    1.0000003E-24
 -4.2400002E-03    1.0000003E-24
 -4.2050001E-03    9.9999982E-25
 -4.1700001E-03    9.9999972E-25
 -4.1350001E-03    1.0000004E-24
 -4.1000000E-03    1.0000008E-24
 -4.0650000E-03    1.0000003E-24
 -4.0300000E-03    9.9999963E-25
 -3.9949999E-03    9.9999963E-25
 -3.9599999E-03    1.0000000E-24
 -3.9249999E-03    1.0000003E-24
 -3.8900001E-03    9.9999992E-25
 -3.8550000E-03    9.9999972E-25
 -3.8200000E-03    1.0000006E-24
 -3.7849999E-03    1.0000009E-24
 -3.7499999E-03    9.9999972E-25
 -3.7150001E-03    9.9999913E-25
 -3.6800001E-03    1.0000001E-24
 -3.6450000E-03    1.0000008E-24
 -3.6100000E-03    1.0000001E-24
 -3.5750000E-03    9.9999972E-25
 -3.5399999E-03    1.0000005E-24
 -3.5049999E-03    1.0000007E-24
 -3.4700001E-03    9.9999992E-25
 -3.4350001E-03    9.9999943E-25
 -3.4000000E-03    9.9999972E-25
 -3.3650000E-03    1.0000003E-24
 -3.3300000E-03    1.0000005E-24
 -3.2949999E-03    1.0000003E-24
 -3.2599999E-03    9.9999982E-25
 -3.2250001E-03    9.9999992E-25
 -3.1900001E-03    1.0000004E-24
 -3.1550000E-03    1.0000005E-24
 -3.1200000E-03    9.9999963E-25
 -3.0850000E-03    9.9999972E-25
 -3.0499999E-03    1.0000007E-24
 -3.0149999E-03    1.0000010E-24
 -2.9800001E-03    9.9999874E-25
 -2.9450001E-03    9.9999815E-25
 -2.9100000E-03    1.0000090E-24
 -2.8750000E-03    9.9999785E-25
 -2.8400000E-03    9.9995722E-25
 -2.8049999E-03    1.0000632E-24
 -2.7699999E-03    1.0001296E-24
 -2.7350001E-03    9.9957039E-25
 -2.7000001E-03    9.9990762E-25
 -2.6650000E-03    1.0018666E-24
 -2.6300000E-03    9.9844606E-25
 -2.5950000E-03    9.9450994E-25
 -2.5599999E-03    1.0111377E-24
 -2.5249999E-03    1.0082447E-24
 -2.4900001E-03    9.5394612E-25
 -2.4550001E-03    1.0183005E-24
 -2.4200000E-03    1.1304814E-24
 -2.3850000E-03    8.1199672E-25
 -2.3500000E-03    7.8250377E-25
 -2.3149999E-03    1.7959367E-24
 -2.2799999E-03    8.6234488E-25
 -2.2450001E-03   -1.2641918E-24
 -2.2100001E-03    3.6441015E-24
 -2.1750000E-03    5.1679915E-24
 -2.1400000E-03   -1.0707731E-23
 -2.1050000E-03   -3.8135895E-25
 -2.0699999E-03    3.5719344E-23
 -2.0349999E-03   -2.4848358E-23
 -2.0000001E-03   -7.3385244E-23
 -1.9650001E-03    1.3035314E-22
 -1.9300000E-03    9.7529013E-23
 -1.8950000E-03   -4.0628046E-22
 -1.8600000E-03    5.4456122E-23
 -1.8250000E-03    9.7116679E-22
 -1.7900000E-03   -8.0341053E-22
 -1.7550000E-03   -1.7503614E-21
 -1.7199999E-03    3.0356416E-21
 -1.6850000E-03    1.9881387E-21
 -1.6500000E-03   -8.0338730E-21
 -1.6150000E-03    7.8912430E-22
 -1.5800000E-03    1.6698717E-20
 -1.5450000E-03   -1.2093898E-20
 -1.5100000E-03   -2.7011581E-20
 -1.4750001E-03    4.1283644E-20
 -1.4400000E-03    2.8927627E-20
 -1.4050000E-03   -9.9429016E-20
 -1.3700000E-03    3.3690814E-21
 -1.3350000E-03    1.9053405E-19
 -1.3000000E-03   -1.1889814E-19
 -1.2650000E-03   -2.9163237E-19
 -1.2300001E-03    3.8960240E-19
 -1.1950000E-03    3.2002959E-19
 -1.1600000E-03   -8.8930126E-19
 -1.1250000E-03   -9.3136446E-20
 -1.0900000E-03    1.6362395E-18
 -1.0550000E-03   -7.0070118E-19
 -1.0200000E-03   -2.4876911E-18
 -9.8500005E-04    2.4872173E-18
 -9.5000002E-04    2.9907000E-18
 -9.1499998E-04   -5.7032159E-18
 -8.8000001E-04   -2.2190247E-18
 -8.4499997E-04    1.0564882E-17
 -8.1000000E-04   -1.3424362E-18
 -7.7500002E-04   -1.6689820E-17
 -7.3999999E-04    9.7800691E-18
 -7.0500001E-04    2.2599512E-17
 -6.6999998E-04   -2.5507304E-17
 -6.3500000E-04   -2.5185360E-17
 -6.0000003E-04    5.0714513E-17
 -5.6499999E-04    1.9276268E-17
 -5.3000002E-04   -8.6465123E-17
 -4.9499999E-04    2.5191213E-18
 -4.6000001E-04    1.3143119E-16
 -4.2500001E-04   -4.9519680E-17
 -3.9000000E-04   -1.8030677E-16
 -3.5500000E-04    1.3209071E-16
 -3.1999999E-04    2.2199149E-16
 -2.8499999E-04   -2.6010042E-16
 -2.5000001E-04   -2.3770190E-16
 -2.1499999E-04    4.4069785E-16
 -1.8000000E-04    1.9923683E-16
 -1.4500000E-04   -6.7538675E-16
 -1.1000000E-04   -6.7667239E-17
 -7.5000004E-05    9.5625785E-16
 -3.9999999E-05   -2.0727665E-16
 -4.9999999E-06   -1.2610793E-15
  2.9999999E-05    6.8686918E-16
  6.5000000E-05    1.5469072E-15
  9.9999997E-05   -1.4418113E-15
  1.3499999E-04   -1.7422660E-15
  1.7000000E-04    2.5489095E-15
  2.0500000E-04    1.7389299E-15
  2.3999999E-04   -4.0849417E-15
  2.7500000E-04   -1.3856615E-15
  3.1000000E-04    6.1156812E-15
  3.4500001E-04    4.8684134E-16
  3.8000001E-04   -8.6770402E-15
  4.1499999E-04    1.1924657E-15
  4.4999999E-04    1.1745447E-14
  4.8500000E-04   -3.9168023E-15
  5.2000000E-04   -1.5196962E-14
  5.5499998E-04    7.9708562E-15
  5.9000001E-04    1.8758939E-14
  6.2499999E-04   -1.3654671E-14
  6.6000002E-04   -2.1962138E-14
  6.9500000E-04    2.1282555E-14
  7.3000003E-04    2.4102341E-14
  7.6500000E-04   -3.1175132E-14
  7.9999998E-04   -2.4215827E-14
  8.3500001E-04    4.3624802E-14
  8.6999999E-04    2.1058149E-14
  9.0500002E-04   -5.8818158E-14
  9.4000000E-04   -1.3055011E-14
  9.7499997E-04    7.6729875E-14
  1.0100000E-03   -1.8075033E-15
  1.0450000E-03   -9.7054092E-14
  1.0800000E-03    2.6136174E-14
  1.1150000E-03    1.1926437E-13
  1.1500000E-03   -6.3218690E-14
  1.1849999E-03   -1.4284877E-13
  1.2200000E-03    1.1685999E-13
  1.2550000E-03    1.6765555E-13
  1.2900000E-03   -1.9076663E-13
  1.3250000E-03   -1.9413263E-13
  1.3600000E-03    2.8737136E-13
  1.3950000E-03    2.2307305E-13
  1.4299999E-03   -4.0627918E-13
  1.4650000E-03   -2.5444666E-13
  1.5000000E-03    5.4297685E-13
  1.5350000E-03    2.8528194E-13
  1.5700000E-03   -6.8866538E-13
  1.6050000E-03   -3.0726696E-13
  1.6400000E-03    8.3159049E-13
  1.6749999E-03    3.0508167E-13
  1.7100000E-03   -9.5940031E-13
  1.7450000E-03   -2.5607896E-13
  1.7800000E-03    1.0616577E-12
  1.8150000E-03    1.3139113E-13
  1.8500000E-03   -1.1316214E-12
  1.8850000E-03    1.0195811E-13
  1.9200000E-03    1.1664891E-12
  1.9550000E-03   -4.7949074E-13
  1.9900000E-03   -1.1668534E-12
  2.0250001E-03    1.0401125E-12
  2.0600001E-03    1.1394197E-12
  2.0949999E-03   -1.8271263E-12
  2.1299999E-03   -1.1068341E-12
  2.1650000E-03    2.8811177E-12
  2.2000000E-03    1.1204181E-12
  2.2350000E-03   -4.2179589E-12
  2.2700001E-03   -1.2633416E-12
  2.3050001E-03    5.7955676E-12
  2.3399999E-03    1.6332691E-12
  2.3749999E-03   -7.4810479E-12
  2.4100000E-03   -2.2993055E-12
  2.4450000E-03    9.0340253E-12
  2.4800000E-03    3.2328647E-12
  2.5150001E-03   -1.0131783E-11
  2.5500001E-03   -4.2325171E-12
  2.5849999E-03    1.0458438E-11
  2.6199999E-03    4.8957756E-12
  2.6550000E-03   -9.8341621E-12
  2.6900000E-03   -4.6816995E-12
  2.7250000E-03    8.3119449E-12
  2.7600001E-03    3.0414668E-12
  2.7950001E-03   -6.1925192E-12
  2.8299999E-03    4.4456236E-13
  2.8649999E-03    3.9655089E-12
  2.9000000E-03   -5.9603889E-12
  2.9350000E-03   -2.1915913E-12
  2.9700000E-03    1.3419091E-11
  3.0050001E-03    1.3654238E-12
  3.0400001E-03   -2.2543894E-11
  3.0749999E-03   -1.8900289E-12
  3.1099999E-03    3.2960662E-11
  3.1450000E-03    4.2165156E-12
  3.1800000E-03   -4.4069894E-11
  3.2150000E-03   -8.9006120E-12
  3.2500001E-03    5.4725245E-11
  3.2850001E-03    1.6303063E-11
  3.3199999E-03   -6.3080714E-11
  3.3549999E-03   -2.6063046E-11
  3.3900000E-03    6.6793605E-11
  3.4250000E-03    3.6585818E-11
  3.4600000E-03   -6.3554911E-11
  3.4950001E-03   -4.4597662E-11
  3.5300001E-03    5.2193048E-11
  3.5649999E-03    4.5293897E-11
  3.5999999E-03   -3.4227149E-11
  3.6350000E-03   -3.3972280E-11
  3.6700000E-03    1.4415969E-11
  3.7050000E-03    8.5313995E-12
  3.7400001E-03    8.0853407E-13
  3.7750001E-03    2.9241731E-11
  3.8099999E-03   -5.7713109E-12
  3.8449999E-03   -7.4091504E-11
  3.8800000E-03   -2.5608862E-12
  3.9149998E-03    1.1845576E-10
  3.9499998E-03    2.2851812E-11
  3.9849998E-03   -1.5512061E-10
  4.0199999E-03   -4.9075962E-11
  4.0549999E-03    1.8124545E-10
  4.0899999E-03    7.4351587E-11
  4.1250000E-03   -1.9896751E-10
  4.1600000E-03   -9.5792548E-11
  4.1950000E-03    2.1065320E-10
  4.2300001E-03    1.1386608E-10
  4.2650001E-03   -2.1545671E-10
  4.3000001E-03   -1.2844621E-10
  4.3350002E-03    2.1042901E-10
  4.3700002E-03    1.3733897E-10
  4.4049998E-03   -1.9122452E-10
  4.4399998E-03   -1.3397213E-10
  4.4749998E-03    1.5480400E-10
  4.5099999E-03    1.0470305E-10
  4.5449999E-03   -1.0905365E-10
  4.5799999E-03   -3.7664712E-11
  4.6150000E-03    7.5453976E-11
  4.6500000E-03   -6.2127366E-11
  4.6850001E-03   -7.4220227E-11
  4.7200001E-03    1.7350625E-10
  4.7550001E-03    1.1150048E-10
  4.7900002E-03   -2.7075714E-10
  4.8250002E-03   -1.7879057E-10
  4.8600002E-03    3.2965147E-10
  4.8949998E-03    2.4916472E-10
  4.9299998E-03   -3.4236525E-10
  4.9649999E-03   -2.8466915E-10
  4.9999999E-03    3.3527542E-10
  5.0349999E-03    2.7164276E-10
  5.0700000E-03   -3.4624606E-10
  5.1050000E-03   -2.3313826E-10
  5.1400000E-03    3.8658299E-10
  5.1750001E-03    1.9683147E-10
  5.2100001E-03   -4.4728238E-10
  5.2450001E-03   -1.8520271E-10
  5.2800002E-03    5.0391386E-10
  5.3150002E-03    2.1466885E-10
  5.3500002E-03   -4.9914756E-10
  5.3849998E-03   -2.4320210E-10
  5.4199998E-03    4.0398235E-10
  5.4549999E-03    1.8150598E-10
  5.4899999E-03   -2.9157204E-10
  5.5249999E-03   -1.7571798E-11
  5.5600000E-03    2.4515831E-10
  5.5950000E-03   -1.8043123E-10
  5.6300000E-03   -2.6884397E-10
  5.6650001E-03    3.7883338E-10
  5.7000001E-03    3.7877135E-10
  5.7350001E-03   -5.1695720E-10
  5.7700002E-03   -5.7267296E-10
  5.8050002E-03    4.6725696E-10
  5.8400002E-03    6.7193051E-10
  5.8749998E-03   -2.8597921E-10
  5.9099998E-03   -5.3004318E-10
  5.9449999E-03    2.1307590E-10
  5.9799999E-03    2.9355571E-10
  6.0149999E-03   -2.7841349E-10
  6.0500000E-03   -9.4140903E-11
  6.0850000E-03    3.7077760E-10
  6.1200000E-03   -1.3256837E-10
  6.1550001E-03   -5.8015209E-10
  6.1900001E-03    2.5205255E-10
  6.2250001E-03    8.5226148E-10
  6.2600002E-03   -9.7268638E-11
  6.2950002E-03   -8.2948559E-10
  6.3299998E-03   -1.9370562E-12
  6.3649998E-03    5.7503469E-10
  6.3999998E-03   -2.2277649E-10
  6.4349999E-03   -5.2298993E-10
  6.4699999E-03    4.2589055E-10
  6.5049999E-03    5.5968313E-10
  6.5400000E-03   -5.1073118E-10
  6.5750000E-03   -4.6888954E-10
  6.6100000E-03    7.5486489E-10
  6.6450001E-03    5.7508570E-10
  6.6800001E-03   -8.5123597E-10
  6.7150001E-03   -7.7940249E-10
  6.7500002E-03    4.9786247E-10
  6.7850002E-03    4.2275450E-10
  6.8199998E-03   -3.8478479E-10
  6.8549998E-03    1.7283418E-10
  6.8899998E-03    7.5295686E-10
  6.9249999E-03   -3.7416412E-10
  6.9599999E-03   -9.8198738E-10
  6.9949999E-03    5.1429883E-10
  7.0300000E-03    1.1242648E-09
  7.0650000E-03   -7.5303480E-10
  7.1000000E-03   -1.5858020E-09
  7.1350001E-03    4.1340123E-10
  7.1700001E-03    1.5729470E-09
  7.2050001E-03   -3.0485243E-11
  7.2400002E-03   -9.8461106E-10
  7.2750002E-03    3.2259617E-10
  7.3099998E-03    6.7716527E-10
  7.3449998E-03   -8.0915324E-10
  7.3799998E-03   -7.3816508E-10
  7.4149999E-03    9.6281016E-10
  7.4499999E-03    4.6975723E-10
  7.4850000E-03   -1.4915515E-09
  7.5200000E-03   -5.9547517E-10
  7.5550000E-03    1.7597817E-09
  7.5900001E-03    8.4337037E-10
  7.6250001E-03   -1.5740025E-09
  7.6600001E-03   -7.6114515E-10
  7.6950002E-03    1.3182503E-09
  7.7300002E-03    3.5293890E-10
  7.7650002E-03   -1.4850725E-09
  7.7999998E-03   -4.1085546E-10
  7.8349998E-03    1.2060705E-09
  7.8699999E-03    1.2960442E-11
  7.9049999E-03   -1.4375472E-09
  7.9399999E-03   -6.6480779E-11
  7.9750000E-03    1.3663172E-09
  8.0100000E-03   -2.8202959E-11
  8.0450000E-03   -1.2441067E-09
  8.0800001E-03    2.4908667E-10
  8.1150001E-03    1.0413137E-09
  8.1500001E-03   -8.0710655E-10
  8.1850002E-03   -1.3953289E-09
  8.2200002E-03    4.9025917E-10
  8.2550002E-03    6.8751238E-10
  8.2900003E-03   -1.1655039E-09
  8.3250003E-03   -9.0809388E-10
  8.3600003E-03    1.1871975E-09
  8.3950004E-03    1.2526434E-09
  8.4300004E-03   -3.9918652E-10
  8.4650004E-03   -6.7746525E-10
  8.5000005E-03    2.8096425E-10
  8.5349996E-03    1.7974405E-10
  8.5699996E-03   -8.4704915E-10
  8.6049996E-03   -6.9034917E-10
  8.6399997E-03    4.5239168E-10
  8.6749997E-03    4.7248572E-10
  8.7099997E-03    1.3625710E-10
  8.7449998E-03    1.3354724E-09
  8.7799998E-03    1.9637474E-09
  8.8149998E-03    4.0983647E-10
  8.8499999E-03   -1.4091062E-10
  8.8849999E-03    1.1412470E-09
  8.9199999E-03    9.8330288E-10
  8.9550000E-03   -2.7756962E-11
  8.9900000E-03    8.1205598E-10
  9.0250000E-03    2.1833457E-09
  9.0600001E-03    2.6897669E-09
  9.0950001E-03    3.1154774E-09
  9.1300001E-03    3.2336553E-09
  9.1650002E-03    3.2929632E-09
  9.2000002E-03    3.9292680E-09
  9.2350002E-03    3.8786987E-09
  9.2700003E-03    3.5587577E-09
  9.3050003E-03    4.4439927E-09
  9.3400003E-03    4.9956999E-09
  9.3750004E-03    5.5732232E-09
  9.4100004E-03    8.0065625E-09
  9.4450004E-03    8.8599892E-09
  9.4799995E-03    7.6193247E-09
  9.5149996E-03    9.8643538E-09
  9.5499996E-03    1.2945218E-08
  9.5849996E-03    1.1284829E-08
  9.6199997E-03    1.0654420E-08
  9.6549997E-03    1.4287870E-08
  9.6899997E-03    1.5776957E-08
  9.7249998E-03    1.5513935E-08
  9.7599998E-03    1.7615978E-08
  9.7949998E-03    1.9634749E-08
  9.8299999E-03    2.1563698E-08
  9.8649999E-03    2.4506150E-08
  9.8999999E-03    2.5107191E-08
  9.9350000E-03    2.6151723E-08
  9.9700000E-03    3.0703525E-08
  1.0005000E-02    3.1980310E-08
  1.0040000E-02    3.1077345E-08
  1.0075000E-02    3.5843712E-08
  1.0110000E-02    3.9908372E-08
  1.0145000E-02    3.9042227E-08
  1.0180000E-02    4.2803432E-08
  1.0215000E-02    4.9116942E-08
  1.0250000E-02    4.9613547E-08
  1.0285000E-02    5.1292350E-08
  1.0320000E-02    5.7313123E-08
  1.0355000E-02    5.9877806E-08
  1.0390000E-02    6.1204396E-08
  1.0425000E-02    6.5284780E-08
  1.0460000E-02    6.8216067E-08
  1.0495000E-02    7.1923296E-08
  1.0530000E-02    7.7465934E-08
  1.0565000E-02    7.9323819E-08
  1.0600000E-02    8.1892516E-08
  1.0635000E-02    8.9349115E-08
  1.0670000E-02    9.2544902E-08
  1.0705000E-02    9.2063196E-08
  1.0740000E-02    9.7736873E-08
  1.0775000E-02    1.0399707E-07
  1.0810000E-02    1.0456063E-07
  1.0845000E-02    1.0723114E-07
  1.0880000E-02    1.1342997E-07
  1.0915000E-02    1.1705069E-07
  1.0950000E-02    1.1962814E-07
  1.0985000E-02    1.2297838E-07
  1.1020000E-02    1.2557440E-07
  1.1055000E-02    1.2911832E-07
  1.1090000E-02    1.3232685E-07
  1.1125000E-02    1.3232656E-07
  1.1160000E-02    1.3415786E-07
  1.1195000E-02    1.3997189E-07
  1.1230000E-02    1.4225817E-07
  1.1265000E-02    1.4042676E-07
  1.1300000E-02    1.4212384E-07
  1.1335000E-02    1.4603960E-07
  1.1370000E-02    1.4607653E-07
  1.1405000E-02    1.4509341E-07
  1.1440000E-02    1.4610411E-07
  1.1475000E-02    1.4479919E-07
  1.1510000E-02    1.4196846E-07
  1.1545000E-02    1.4276677E-07
  1.1580000E-02    1.4310879E-07
  1.1615000E-02    1.3884714E-07
  1.1650000E-02    1.3573538E-07
  1.1685000E-02    1.3490309E-07
  1.1720000E-02    1.3162499E-07
  1.1755000E-02    1.2828497E-07
  1.1790000E-02    1.2560155E-07
  1.1825000E-02    1.1903280E-07
  1.1860000E-02    1.1248225E-07
  1.1895000E-02    1.0909415E-07
  1.1930000E-02    1.0217593E-07
  1.1965000E-02    9.3290609E-08
  1.2000000E-02    8.9128164E-08
  1.2035000E-02    8.3824787E-08
  1.2070000E-02    7.3857066E-08
  1.2105000E-02    6.6469426E-08
  1.2140000E-02    6.1139062E-08
  1.2175000E-02    5.2494659E-08
  1.2210000E-02    4.2894413E-08
  1.2245000E-02    3.4007851E-08
  1.2280000E-02    2.4080144E-08
  1.2315000E-02    1.3605978E-08
  1.2350000E-02    3.0104912E-09
  1.2385000E-02   -6.4894095E-09
  1.2420000E-02   -1.4325009E-08
  1.2455000E-02   -2.4509273E-08
  1.2490000E-02   -3.6145792E-08
  1.2525000E-02   -4.4137142E-08
  1.2560000E-02   -5.2275002E-08
  1.2595000E-02   -6.3191031E-08
  1.2630000E-02   -7.1781535E-08
  1.2665000E-02   -8.1201186E-08
  1.2700000E-02   -9.4933149E-08
  1.2735000E-02   -1.0426341E-07
  1.2770000E-02   -1.0946395E-07
  1.2805000E-02   -1.2001273E-07
  1.2840000E-02   -1.3059362E-07
  1.2875000E-02   -1.3524664E-07
  1.2910000E-02   -1.4190231E-07
  1.2945000E-02   -1.5059362E-07
  1.2980000E-02   -1.5501699E-07
  1.3015000E-02   -1.6088788E-07
  1.3050000E-02   -1.7013458E-07
  1.3085000E-02   -1.7417415E-07
  1.3120000E-02   -1.7594652E-07
  1.3155000E-02   -1.8323404E-07
  1.3190000E-02   -1.8905845E-07
  1.3225000E-02   -1.8837900E-07
  1.3260000E-02   -1.9008756E-07
  1.3295000E-02   -1.9558060E-07
  1.3330000E-02   -1.9636070E-07
  1.3365000E-02   -1.9559519E-07
  1.3400000E-02   -1.9978596E-07
  1.3435000E-02   -2.0060101E-07
  1.3470000E-02   -1.9459115E-07
  1.3505000E-02   -1.9430034E-07
  1.3540000E-02   -1.9922362E-07
  1.3575000E-02   -1.9605137E-07
  1.3610000E-02   -1.9042990E-07
  1.3645000E-02   -1.9250011E-07
  1.3680000E-02   -1.9182994E-07
  1.3715000E-02   -1.8371672E-07
  1.3750000E-02   -1.7969224E-07
  1.3785000E-02   -1.7825397E-07
  1.3820000E-02   -1.7140214E-07
  1.3855000E-02   -1.6584133E-07
  1.3890000E-02   -1.6386301E-07
  1.3925000E-02   -1.5695304E-07
  1.3960000E-02   -1.4837136E-07
  1.3995000E-02   -1.4550527E-07
  1.4030000E-02   -1.4235530E-07
  1.4065000E-02   -1.3496955E-07
  1.4100000E-02   -1.3045604E-07
  1.4135000E-02   -1.3075504E-07
  1.4170000E-02   -1.3079226E-07
  1.4205000E-02   -1.3187126E-07
  1.4240000E-02   -1.3827562E-07
  1.4275000E-02   -1.4613674E-07
  1.4310000E-02   -1.5264345E-07
  1.4345000E-02   -1.6635286E-07
  1.4380000E-02   -1.9006845E-07
  1.4415000E-02   -2.1385853E-07
  1.4450000E-02   -2.4063169E-07
  1.4485000E-02   -2.8284839E-07
  1.4520000E-02   -3.3265724E-07
  1.4555000E-02   -3.8228436E-07
  1.4590000E-02   -4.4936320E-07
  1.4625000E-02   -5.3962452E-07
  1.4660000E-02   -6.3703027E-07
  1.4695000E-02   -7.4898799E-07
  1.4730000E-02   -8.9387476E-07
  1.4765000E-02   -1.0630075E-06
  1.4800000E-02   -1.2542035E-06
  1.4835000E-02   -1.4888620E-06
  1.4870000E-02   -1.7681928E-06
  1.4905000E-02   -2.0848570E-06
  1.4940000E-02   -2.4628571E-06
  1.4975000E-02   -2.9208932E-06
  1.5010000E-02   -3.4496884E-06
  1.5045000E-02   -4.0610184E-06
  1.5080000E-02   -4.7859385E-06
  1.5115000E-02   -5.6305671E-06
  1.5150000E-02   -6.6037023E-06
  1.5185000E-02   -7.7445857E-06
  1.5220000E-02   -9.0784779E-06
  1.5255000E-02   -1.0611794E-05
  1.5290000E-02   -1.2380640E-05
  1.5325000E-02   -1.4435364E-05
  1.5360000E-02   -1.6802733E-05
  1.5395000E-02   -1.9516458E-05
  1.5430000E-02   -2.2637274E-05
  1.5465000E-02   -2.6218973E-05
  1.5500000E-02   -3.0309966E-05
  1.5535000E-02   -3.4983936E-05
  1.5570000E-02   -4.0323284E-05
  1.5605000E-02   -4.6398469E-05
  1.5640000E-02   -5.3292006E-05
  1.5675001E-02   -6.1108571E-05
  1.5710000E-02   -6.9956353E-05
  1.5745001E-02   -7.9951140E-05
  1.5780000E-02   -9.1226459E-05
  1.5814999E-02   -1.0391985E-04
  1.5850000E-02   -1.1817388E-04
  1.5884999E-02   -1.3415562E-04
  1.5920000E-02   -1.5204951E-04
  1.5954999E-02   -1.7204072E-04
  1.5990000E-02   -1.9432766E-04
  1.6024999E-02   -2.1913221E-04
  1.6060000E-02   -2.4668718E-04
  1.6094999E-02   -2.7723412E-04
  1.6130000E-02   -3.1103400E-04
  1.6164999E-02   -3.4836534E-04
  1.6200000E-02   -3.8951403E-04
  1.6235000E-02   -4.3477415E-04
  1.6270000E-02   -4.8445794E-04
  1.6305000E-02   -5.3889526E-04
  1.6340001E-02   -5.9842080E-04
  1.6375000E-02   -6.6337618E-04
  1.6410001E-02   -7.3411723E-04
  1.6445000E-02   -8.1100164E-04
  1.6480001E-02   -8.9437887E-04
  1.6515000E-02   -9.8460587E-04
  1.6550001E-02   -1.0820491E-03
  1.6585000E-02   -1.1870621E-03
  1.6620001E-02   -1.2999824E-03
  1.6655000E-02   -1.4211417E-03
  1.6690001E-02   -1.5508534E-03
  1.6725000E-02   -1.6894040E-03
  1.6759999E-02   -1.8370581E-03
  1.6795000E-02   -1.9940552E-03
  1.6829999E-02   -2.1605957E-03
  1.6865000E-02   -2.3368367E-03
  1.6899999E-02   -2.5228881E-03
  1.6935000E-02   -2.7188123E-03
  1.6969999E-02   -2.9246104E-03
  1.7005000E-02   -3.1402218E-03
  1.7039999E-02   -3.3655227E-03
  1.7075000E-02   -3.6003089E-03
  1.7109999E-02   -3.8442954E-03
  1.7145000E-02   -4.0971232E-03
  1.7180000E-02   -4.3583447E-03
  1.7215000E-02   -4.6274168E-03
  1.7250000E-02   -4.9037049E-03
  1.7285001E-02   -5.1864814E-03
  1.7320000E-02   -5.4749106E-03
  1.7355001E-02   -5.7680556E-03
  1.7390000E-02   -6.0648867E-03
  1.7425001E-02   -6.3642696E-03
  1.7460000E-02   -6.6649732E-03
  1.7495001E-02   -6.9656717E-03
  1.7530000E-02   -7.2649494E-03
  1.7565001E-02   -7.5612972E-03
  1.7600000E-02   -7.8531252E-03
  1.7635001E-02   -8.1387693E-03
  1.7670000E-02   -8.4165083E-03
  1.7704999E-02   -8.6845616E-03
  1.7740000E-02   -8.9410981E-03
  1.7774999E-02   -9.1842525E-03
  1.7810000E-02   -9.4121378E-03
  1.7844999E-02   -9.6228719E-03
  1.7880000E-02   -9.8145669E-03
  1.7914999E-02   -9.9853491E-03
  1.7950000E-02   -1.0133400E-02
  1.7984999E-02   -1.0256935E-02
  1.8020000E-02   -1.0354251E-02
  1.8054999E-02   -1.0423734E-02
  1.8090000E-02   -1.0463865E-02
  1.8124999E-02   -1.0473238E-02
  1.8160000E-02   -1.0450596E-02
  1.8195000E-02   -1.0394822E-02
  1.8230001E-02   -1.0304947E-02
  1.8265000E-02   -1.0180195E-02
  1.8300001E-02   -1.0019993E-02
  1.8335000E-02   -9.8239379E-03
  1.8370001E-02   -9.5918318E-03
  1.8405000E-02   -9.3237339E-03
  1.8440001E-02   -9.0199001E-03
  1.8475000E-02   -8.6807944E-03
  1.8510001E-02   -8.3071347E-03
  1.8545000E-02   -7.8998674E-03
  1.8580001E-02   -7.4601336E-03
  1.8615000E-02   -6.9893212E-03
  1.8650001E-02   -6.4890552E-03
  1.8685000E-02   -5.9611411E-03
  1.8719999E-02   -5.4075555E-03
  1.8755000E-02   -4.8304899E-03
  1.8789999E-02   -4.2323233E-03
  1.8825000E-02   -3.6155563E-03
  1.8859999E-02   -2.9828174E-03
  1.8895000E-02   -2.3368883E-03
  1.8929999E-02   -1.6806475E-03
  1.8965000E-02   -1.0170111E-03
  1.8999999E-02   -3.4896322E-04
  1.9035000E-02    3.2045800E-04
  1.9069999E-02    9.8822289E-04
  1.9105000E-02    1.6513173E-03
  1.9140000E-02    2.3067479E-03
  1.9175000E-02    2.9516001E-03
  1.9210000E-02    3.5830424E-03
  1.9245001E-02    4.1983230E-03
  1.9280000E-02    4.7948197E-03
  1.9315001E-02    5.3700581E-03
  1.9350000E-02    5.9217140E-03
  1.9385001E-02    6.4476351E-03
  1.9420000E-02    6.9458601E-03
  1.9455001E-02    7.4146222E-03
  1.9490000E-02    7.8523615E-03
  1.9525001E-02    8.2577411E-03
  1.9560000E-02    8.6296313E-03
  1.9595001E-02    8.9671211E-03
  1.9630000E-02    9.2695476E-03
  1.9664999E-02    9.5364731E-03
  1.9700000E-02    9.7676693E-03
  1.9734999E-02    9.9631175E-03
  1.9770000E-02    1.0123031E-02
  1.9804999E-02    1.0247825E-02
  1.9840000E-02    1.0338091E-02
  1.9874999E-02    1.0394618E-02
  1.9910000E-02    1.0418380E-02
  1.9944999E-02    1.0410491E-02
  1.9980000E-02    1.0372201E-02
  2.0014999E-02    1.0304905E-02
  2.0050000E-02    1.0210116E-02
  2.0085000E-02    1.0089428E-02
  2.0120000E-02    9.9445265E-03
  2.0155000E-02    9.7771846E-03
  2.0190001E-02    9.5891869E-03
  2.0225000E-02    9.3823411E-03
  2.0260001E-02    9.1585191E-03
  2.0295000E-02    8.9196013E-03
  2.0330001E-02    8.6674234E-03
  2.0365000E-02    8.4037930E-03
  2.0400001E-02    8.1305150E-03
  2.0435000E-02    7.8493506E-03
  2.0470001E-02    7.5619803E-03
  2.0505000E-02    7.2700256E-03
  2.0540001E-02    6.9750445E-03
  2.0575000E-02    6.6785137E-03
  2.0609999E-02    6.3818237E-03
  2.0645000E-02    6.0862764E-03
  2.0679999E-02    5.7930774E-03
  2.0715000E-02    5.5033332E-03
  2.0749999E-02    5.2180616E-03
  2.0785000E-02    4.9381908E-03
  2.0819999E-02    4.6645333E-03
  2.0855000E-02    4.3978025E-03
  2.0889999E-02    4.1386313E-03
  2.0925000E-02    3.8875767E-03
  2.0959999E-02    3.6450787E-03
  2.0995000E-02    3.4114860E-03
  2.1029999E-02    3.1870997E-03
  2.1065000E-02    2.9721416E-03
  2.1100000E-02    2.7667240E-03
  2.1135001E-02    2.5709132E-03
  2.1170000E-02    2.3847504E-03
  2.1205001E-02    2.2081821E-03
  2.1240000E-02    2.0410821E-03
  2.1275001E-02    1.8833295E-03
  2.1310000E-02    1.7347668E-03
  2.1345001E-02    1.5951541E-03
  2.1380000E-02    1.4642326E-03
  2.1415001E-02    1.3417458E-03
  2.1450000E-02    1.2274019E-03
  2.1485001E-02    1.1208737E-03
  2.1520000E-02    1.0218361E-03
  2.1555001E-02    9.2996837E-04
  2.1590000E-02    8.4492879E-04
  2.1624999E-02    7.6635747E-04
  2.1660000E-02    6.9391221E-04
  2.1694999E-02    6.2726397E-04
  2.1730000E-02    5.6606508E-04
  2.1764999E-02    5.0997012E-04
  2.1800000E-02    4.5866845E-04
  2.1834999E-02    4.1185238E-04
  2.1870000E-02    3.6919935E-04
  2.1904999E-02    3.3041168E-04
  2.1940000E-02    2.9522271E-04
  2.1974999E-02    2.6336472E-04
  2.2010000E-02    2.3456824E-04
  2.2045000E-02    2.0858864E-04
  2.2080000E-02    1.8520832E-04
  2.2115000E-02    1.6421135E-04
  2.2150001E-02    1.4537551E-04
  2.2185000E-02    1.2850616E-04
  2.2220001E-02    1.1345091E-04
  2.2255000E-02    1.0005253E-04
  2.2290001E-02    8.8127599E-05
  2.2325000E-02    7.7523786E-05
  2.2360001E-02    6.8139409E-05
  2.2395000E-02    5.9859907E-05
  2.2430001E-02    5.2546573E-05
  2.2465000E-02    4.6099565E-05
  2.2500001E-02    4.0451661E-05
  2.2535000E-02    3.5506077E-05
  2.2569999E-02    3.1159056E-05
  2.2605000E-02    2.7357351E-05
  2.2639999E-02    2.4060893E-05
  2.2675000E-02    2.1192543E-05
  2.2709999E-02    1.8685078E-05
  2.2745000E-02    1.6513397E-05
  2.2779999E-02    1.4635291E-05
  2.2815000E-02    1.2986218E-05
  2.2849999E-02    1.1549443E-05
  2.2885000E-02    1.0329430E-05
  2.2919999E-02    9.2782784E-06
  2.2955000E-02    8.3438454E-06
  2.2990000E-02    7.5262092E-06
  2.3025000E-02    6.8214122E-06
  2.3060000E-02    6.1936721E-06
  2.3095001E-02    5.6259832E-06
  2.3130000E-02    5.1263323E-06
  2.3165001E-02    4.6888890E-06
  2.3200000E-02    4.2875963E-06
  2.3235001E-02    3.9041897E-06
  2.3270000E-02    3.5473781E-06
  2.3305001E-02    3.2256353E-06
  2.3340000E-02    2.9187311E-06
  2.3375001E-02    2.6106231E-06
  2.3410000E-02    2.3135572E-06
  2.3445001E-02    2.0338009E-06
  2.3480000E-02    1.7604315E-06
  2.3514999E-02    1.4895853E-06
  2.3550000E-02    1.2245897E-06
  2.3584999E-02    9.6355870E-07
  2.3620000E-02    7.0028329E-07
  2.3654999E-02    4.3494776E-07
  2.3690000E-02    1.7781340E-07
  2.3724999E-02   -6.9707653E-08
  2.3760000E-02   -3.1637779E-07
  2.3794999E-02   -5.5748825E-07
  2.3830000E-02   -7.8921738E-07
  2.3864999E-02   -1.0231582E-06
  2.3900000E-02   -1.2540148E-06
  2.3934999E-02   -1.4653127E-06
  2.3970000E-02   -1.6649709E-06
  2.4005000E-02   -1.8627001E-06
  2.4040001E-02   -2.0502357E-06
  2.4075000E-02   -2.2246040E-06
  2.4110001E-02   -2.3860757E-06
  2.4145000E-02   -2.5292954E-06
  2.4180001E-02   -2.6562532E-06
  2.4215000E-02   -2.7704468E-06
  2.4250001E-02   -2.8698562E-06
  2.4285000E-02   -2.9560083E-06
  2.4320001E-02   -3.0289573E-06
  2.4355000E-02   -3.0853173E-06
  2.4390001E-02   -3.1257691E-06
  2.4425000E-02   -3.1485476E-06
  2.4460001E-02   -3.1516909E-06
  2.4495000E-02   -3.1411157E-06
  2.4529999E-02   -3.1165926E-06
  2.4565000E-02   -3.0705767E-06
  2.4599999E-02   -3.0072695E-06
  2.4635000E-02   -2.9341472E-06
  2.4669999E-02   -2.8447166E-06
  2.4705000E-02   -2.7338476E-06
  2.4739999E-02   -2.6111404E-06
  2.4775000E-02   -2.4821068E-06
  2.4809999E-02   -2.3385917E-06
  2.4845000E-02   -2.1777555E-06
  2.4879999E-02   -2.0041587E-06
  2.4915000E-02   -1.8161178E-06
  2.4950000E-02   -1.6179627E-06
  2.4985000E-02   -1.4209286E-06
  2.5020000E-02   -1.2143381E-06
  2.5055001E-02   -9.8198393E-07
  2.5090000E-02   -7.4037553E-07
  2.5125001E-02   -5.0875587E-07
  2.5160000E-02   -2.7347232E-07
  2.5195001E-02   -2.2076216E-08
  2.5230000E-02    2.2986035E-07
  2.5265001E-02    4.6982001E-07
  2.5300000E-02    7.1194654E-07
  2.5335001E-02    9.7024770E-07
  2.5370000E-02    1.2292942E-06
  2.5405001E-02    1.4694153E-06
  2.5440000E-02    1.7018306E-06
  2.5474999E-02    1.9422735E-06
  2.5510000E-02    2.1782644E-06
  2.5544999E-02    2.3952184E-06
  2.5580000E-02    2.5992110E-06
  2.5614999E-02    2.7968840E-06
  2.5650000E-02    2.9851878E-06
  2.5684999E-02    3.1623490E-06
  2.5720000E-02    3.3268032E-06
  2.5754999E-02    3.4728946E-06
  2.5790000E-02    3.6018832E-06
  2.5824999E-02    3.7220243E-06
  2.5860000E-02    3.8272865E-06
  2.5895000E-02    3.9031142E-06
  2.5930000E-02    3.9565052E-06
  2.5965000E-02    4.0028440E-06
  2.6000001E-02    4.0349441E-06
  2.6035000E-02    4.0393652E-06
  2.6070001E-02    4.0183804E-06
  2.6105000E-02    3.9811271E-06
  2.6140001E-02    3.9324937E-06
  2.6175000E-02    3.8644953E-06
  2.6210001E-02    3.7651862E-06
  2.6245000E-02    3.6445861E-06
  2.6280001E-02    3.5167163E-06
  2.6315000E-02    3.3676417E-06
  2.6350001E-02    3.1862091E-06
  2.6385000E-02    2.9914927E-06
  2.6419999E-02    2.7981619E-06
  2.6455000E-02    2.5958886E-06
  2.6489999E-02    2.3747093E-06
  2.6525000E-02    2.1393600E-06
  2.6559999E-02    1.8947056E-06
  2.6595000E-02    1.6386742E-06
  2.6629999E-02    1.3749185E-06
  2.6665000E-02    1.1096945E-06
  2.6699999E-02    8.3850148E-07
  2.6735000E-02    5.6182699E-07
  2.6769999E-02    2.8996340E-07
  2.6805000E-02    2.0570079E-08
  2.6839999E-02   -2.4758106E-07
  2.6875000E-02   -5.0115244E-07
  2.6910000E-02   -7.4130634E-07
  2.6945001E-02   -9.7792679E-07
  2.6980000E-02   -1.2065977E-06