 -4.8000002E-03    1.0000000E-24
 -4.7650002E-03    1.0000002E-24
 -4.7300002E-03    1.0000001E-24
 -4.6950001E-03    1.0000000E-24
 -4.6600001E-03    1.0000003E-24
 -4.6250001E-03    1.0000002E-24
 -4.5900000E-03    1.0000000E-24
 -4.5550000E-03    1.0000002E-24
 -4.5200000E-03    9.9999992E-25
 -4.4849999E-03    1.0000000E-24
 -4.4499999E-03    1.0000002E-24
 -4.4149999E-03    1.0000002E-24
 -4.3799998E-03    9.9999963E-25
 -4.3449998E-03    1.0000000E-24
 -4.3100002E-03    1.0000007E-24
 -4.2750002E-03    1.0000001E-24
 -4.2400002E-03    9.9999982E-25
 -4.2050001E-03    1.0000006E-24
 -4.1700001E-03    1.0000005E-24
 -4.1350001E-03    9.9999953E-25
 -4.1000000E-03    9.9999963E-25
 -4.0650000E-03    1.0000003E-24
 -4.0300000E-03    1.0000001E-24
 -3.9949999E-03    9.9999972E-25
 -3.9599999E-03    1.0000004E-24
 -3.9249999E-03    1.0000005E-24
 -3.8900001E-03    9.9999972E-25
 -3.8550000E-03    9.9999982E-25
 -3.8200000E-03    1.0000005E-24
 -3.7849999E-03    1.0000002E-24
 -3.7499999E-03    9.9999972E-25
 -3.7150001E-03    1.0000004E-24
 -3.6800001E-03    1.0000007E-24
 -3.6450000E-03    9.9999972E-25
 -3.6100000E-03    9.9999953E-25
 -3.5750000E-03    1.0000000E-24
 -3.5399999E-03    9.9999992E-25
 -3.5049999E-03    9.9999992E-25
 -3.4700001E-03    1.0000007E-24
 -3.4350001E-03    1.0000005E-24
 -3.4000000E-03    9.9999992E-25
 -3.3650000E-03    9.9999992E-25
 -3.3300000E-03    1.0000001E-24
 -3.2949999E-03    9.9999972E-25
 -3.2599999E-03    9.9999992E-25
 -3.2250001E-03    1.0000007E-24
 -3.1900001E-03    1.0000006E-24
 -3.1550000E-03    9.9999972E-25
 -3.1200000E-03    1.0000000E-24
 -3.0850000E-03    1.0000008E-24
 -3.0499999E-03    9.9999992E-25
 -3.0149999E-03    9.9999933E-25
 -2.9800001E-03    1.0000001E-24
 -2.9450001E-03    1.0000009E-24
 -2.9100000E-03    1.0000001E-24
 -2.8750000E-03    9.9999972E-25
 -2.8400000E-03    1.0000004E-24
 -2.8049999E-03    1.0000002E-24
 -2.7699999E-03    9.9999992E-25
 -2.7350001E-03    1.0000007E-24
 -2.7000001E-03    1.0000004E-24
 -2.6650000E-03    9.9999963E-25
 -2.6300000E-03    1.0000001E-24
 -2.5950000E-03    1.0000004E-24
 -2.5599999E-03    9.9999992E-25
 -2.5249999E-03    9.9999972E-25
 -2.4900001E-03    9.9999992E-25
 -2.4550001E-03    9.9999992E-25
 -2.4200000E-03    1.0000002E-24
 -2.3850000E-03    1.0000005E-24
 -2.3500000E-03    1.0000001E-24
 -2.3149999E-03    9.9999982E-25
 -2.2799999E-03    9.9999992E-25
 -2.2450001E-03    9.9999953E-25
 -2.2100001E-03    9.9999963E-25
 -2.1750000E-03    1.0000003E-24
 -2.1400000E-03    1.0000010E-24
 -2.1050000E-03    1.0000013E-24
 -2.0699999E-03    9.9999854E-25
 -2.0349999E-03    9.9999992E-25
 -2.0000001E-03    1.0000061E-24
 -1.9650001E-03    9.9999479E-25
 -1.9300000E-03    9.9998829E-25
 -1.8950000E-03    1.0000172E-24
 -1.8600000E-03    1.0000095E-24
 -1.8250000E-03    9.9992005E-25
 -1.7900000E-03    9.9994036E-25
 -1.7550000E-03    1.0002257E-24
 -1.7199999E-03    9.9985359E-25
 -1.6850000E-03    9.9953045E-25
 -1.6500000E-03    1.0006108E-24
 -1.6150000E-03    1.0007742E-24
 -1.5800000E-03    9.9823011E-25
 -1.5450000E-03    9.9856735E-25
 -1.5100000E-03    1.0043028E-24
 -1.4750001E-03    9.9981947E-25
 -1.4400000E-03    9.9027889E-25
 -1.4050000E-03    1.0037937E-24
 -1.3700000E-03    1.0094316E-24
 -1.3350000E-03    9.8900774E-25
 -1.3000000E-03    9.9201744E-25
 -1.2650000E-03    1.0313998E-24
 -1.2300001E-03    1.0153448E-24
 -1.1950000E-03    9.3805235E-25
 -1.1600000E-03    1.0039465E-24
 -1.1250000E-03    1.0980364E-24
 -1.0900000E-03    9.2098239E-25
 -1.0550000E-03    9.1918408E-25
 -1.0200000E-03    1.1390986E-24
 -9.8500005E-04    1.0155514E-24
 -9.5000002E-04    5.8544316E-25
 -9.1499998E-04    1.1769594E-24
 -8.8000001E-04    1.6715324E-24
 -8.4499997E-04    1.7093137E-25
 -8.1000000E-04    5.9888082E-25
 -7.7500002E-04    2.4784548E-24
 -7.3999999E-04    1.1580453E-24
 -7.0500001E-04   -1.3472800E-24
 -6.6999998E-04    1.5142843E-24
 -6.3500000E-04    4.5590007E-24
 -6.0000003E-04   -7.5475169E-25
 -5.6499999E-04   -4.2060174E-24
 -5.3000002E-04    6.5054105E-24
 -4.9499999E-04    7.2349297E-24
 -4.6000001E-04   -1.1733964E-23
 -4.2500001E-04   -1.0067429E-23
 -3.9000000E-04    1.9768619E-23
 -3.5500000E-04    6.6105625E-24
 -3.1999999E-04   -2.8457681E-23
 -2.8499999E-04   -1.9199212E-24
 -2.5000001E-04    3.6031963E-23
 -2.1499999E-04   -1.3154222E-23
 -1.8000000E-04   -4.9790811E-23
 -1.4500000E-04    2.3122490E-23
 -1.1000000E-04    7.1459874E-23
 -7.5000004E-05   -5.5139768E-23
 -3.9999999E-05   -3.7575256E-23
 -4.9999999E-06    1.6196558E-22
  2.9999999E-05    4.0128294E-23
  6.5000000E-05   -2.2093232E-22
  9.9999997E-05    1.1536120E-22
  1.3499999E-04    2.6323430E-22
  1.7000000E-04   -1.7282360E-22
  2.0500000E-04   -2.5801540E-22
  2.3999999E-04    2.8588842E-22
  2.7500000E-04    2.4877745E-22
  3.1000000E-04   -3.3240852E-22
  3.4500001E-04   -1.9287717E-22
  3.8000001E-04    2.3685987E-22
  4.1499999E-04    4.0831536E-22
  4.4999999E-04   -7.8659252E-23
  4.8500000E-04   -4.1386869E-22
  5.2000000E-04   -4.9196299E-22
  5.5499998E-04   -1.3856703E-22
  5.9000001E-04    2.0367028E-22
  6.2499999E-04    7.8617726E-22
  6.6000002E-04   -1.5481155E-21
  6.9500000E-04   -3.4714541E-21
  7.3000003E-04    4.0999966E-21
  7.6500000E-04    7.9624971E-21
  7.9999998E-04   -4.5237340E-21
  8.3500001E-04   -1.3064890E-20
  8.6999999E-04    7.4968607E-21
  9.0500002E-04    2.3897857E-20
  9.4000000E-04   -8.8245881E-21
  9.7499997E-04   -3.6904114E-20
  1.0100000E-03   -8.8137457E-22
  1.0450000E-03    5.2394531E-20
  1.0800000E-03    1.6528321E-20
  1.1150000E-03   -6.9025489E-20
  1.1500000E-03   -4.0820791E-20
  1.1849999E-03    1.0081308E-19
  1.2200000E-03    9.1937584E-20
  1.2550000E-03   -1.1514380E-19
  1.2900000E-03   -1.4564310E-19
  1.3250000E-03    1.1120478E-19
  1.3600000E-03    2.1729642E-19
  1.3950000E-03   -8.2661923E-20
  1.4299999E-03   -3.2618676E-19
  1.4650000E-03   -1.6597476E-20
  1.5000000E-03    4.3364745E-19
  1.5350000E-03    1.4929309E-19
  1.5700000E-03   -5.3660447E-19
  1.6050000E-03   -3.8621898E-19
  1.6400000E-03    4.9203727E-19
  1.6749999E-03    6.8404213E-19
  1.7100000E-03   -2.7790635E-19
  1.7450000E-03   -1.0508443E-18
  1.7800000E-03   -1.5587459E-19
  1.8150000E-03    1.4329596E-18
  1.8500000E-03    9.2773600E-19
  1.8850000E-03   -1.6108612E-18
  1.9200000E-03   -1.9659312E-18
  1.9550000E-03    1.4754080E-18
  1.9900000E-03    3.4973416E-18
  2.0250001E-03   -7.2739782E-19
  2.0600001E-03   -5.4504465E-18
  2.0949999E-03   -1.3095078E-18
  2.1299999E-03    7.4032408E-18
  2.1650000E-03    4.5910331E-18
  2.2000000E-03   -8.7026721E-18
  2.2350000E-03   -9.1679207E-18
  2.2700001E-03    8.6076423E-18
  2.3050001E-03    1.4995438E-17
  2.3399999E-03   -5.9634734E-18
  2.3749999E-03   -2.1622769E-17
  2.4100000E-03   -3.3744078E-19
  2.4450000E-03    2.7581386E-17
  2.4800000E-03    1.0769236E-17
  2.5150001E-03   -2.9669655E-17
  2.5500001E-03   -2.4491753E-17
  2.5849999E-03    2.6522787E-17
  2.6199999E-03    4.2388073E-17
  2.6550000E-03   -1.2194520E-17
  2.6900000E-03   -6.1156427E-17
  2.7250000E-03   -1.6287562E-17
  2.7600001E-03    7.4014712E-17
  2.7950001E-03    5.8823672E-17
  2.8299999E-03   -7.7472558E-17
  2.8649999E-03   -1.1896046E-16
  2.9000000E-03    5.5565566E-17
  2.9350000E-03    1.8774996E-16
  2.9700000E-03    1.1080989E-18
  3.0050001E-03   -2.5398090E-16
  3.0400001E-03   -9.7073582E-17
  3.0749999E-03    3.0314155E-16
  3.1099999E-03    2.3386958E-16
  3.1450000E-03   -3.1052053E-16
  3.1800000E-03   -4.1028886E-16
  3.2150000E-03    2.4242385E-16
  3.2500001E-03    5.9489437E-16
  3.2850001E-03   -8.0777330E-17
  3.3199999E-03   -7.5044710E-16
  3.3549999E-03   -1.9142702E-16
  3.3900000E-03    8.2178761E-16
  3.4250000E-03    5.6677500E-16
  3.4600000E-03   -7.3944838E-16
  3.4950001E-03   -1.0004981E-15
  3.5300001E-03    4.4581451E-16
  3.5649999E-03    1.4256148E-15
  3.5999999E-03    1.2777975E-16
  3.6350000E-03   -1.7083259E-15
  3.6700000E-03   -9.7369963E-16
  3.7050000E-03    1.7094877E-15
  3.7400001E-03    2.0462868E-15
  3.7750001E-03   -1.2669514E-15
  3.8099999E-03   -3.1852390E-15
  3.8449999E-03    2.5989544E-16
  3.8800000E-03    4.1527984E-15
  3.9149998E-03    1.3553408E-15
  3.9499998E-03   -4.6317138E-15
  3.9849998E-03   -3.4764790E-15
  4.0199999E-03    4.2847212E-15
  4.0549999E-03    5.8521638E-15
  4.0899999E-03   -2.7972094E-15
  4.1250000E-03   -7.9646186E-15
  4.1600000E-03    4.0185400E-17
  4.1950000E-03    9.1859410E-15
  4.2300001E-03    3.8714924E-15
  4.2650001E-03   -8.7470687E-15
  4.3000001E-03   -8.4074568E-15
  4.3350002E-03    6.0413545E-15
  4.3700002E-03    1.2613126E-14
  4.4049998E-03   -6.7550057E-16
  4.4399998E-03   -1.5178109E-14
  4.4749998E-03   -7.1548458E-15
  4.5099999E-03    1.4632316E-14
  4.5449999E-03    1.6422986E-14
  4.5799999E-03   -9.7411660E-15
  4.6150000E-03   -2.5377365E-14
  4.6500000E-03   -2.1091883E-16
  4.6850001E-03    3.1472197E-14
  4.7200001E-03    1.4792289E-14
  4.7550001E-03   -3.1848988E-14
  4.7900002E-03   -3.2051778E-14
  4.8250002E-03    2.4077803E-14
  4.8600002E-03    4.8399659E-14
  4.8949998E-03   -7.2337198E-15
  4.9299998E-03   -5.9264354E-14
  4.9649999E-03   -1.7743124E-14
  4.9999999E-03    5.9641989E-14
  5.0349999E-03    4.7464667E-14
  5.0700000E-03   -4.5326095E-14
  5.1050000E-03   -7.6080066E-14
  5.1400000E-03    1.3402565E-14
  5.1750001E-03    9.4421812E-14
  5.2100001E-03    3.3746572E-14
  5.2450001E-03   -9.3703860E-14
  5.2800002E-03   -8.9556773E-14
  5.3150002E-03    6.7042678E-14
  5.3500002E-03    1.4292662E-13
  5.3849998E-03   -1.2249524E-14
  5.4199998E-03   -1.8082111E-13
  5.4549999E-03   -6.7361413E-14
  5.4899999E-03    1.9003161E-13
  5.5249999E-03    1.6282921E-13
  5.5600000E-03   -1.5781438E-13
  5.5950000E-03   -2.5579389E-13
  5.6300000E-03    7.9371663E-14
  5.6650001E-03    3.2179622E-13
  5.7000001E-03    3.6500916E-14
  5.7350001E-03   -3.3938911E-13
  5.7700002E-03   -1.6869501E-13
  5.8050002E-03    2.9778635E-13
  5.8400002E-03    2.9088724E-13
  5.8749998E-03   -1.9783623E-13
  5.9099998E-03   -3.7687683E-13
  5.9449999E-03    5.0636443E-14
  5.9799999E-03    4.0157575E-13
  6.0149999E-03    1.1791504E-13
  6.0500000E-03   -3.5074740E-13
  6.0850000E-03   -2.7029155E-13
  6.1200000E-03    2.3118240E-13
  6.1550001E-03    3.6977097E-13
  6.1900001E-03   -7.3321198E-14
  6.2250001E-03   -3.9726339E-13
  6.2600002E-03   -8.0395563E-14
  6.2950002E-03    3.5928021E-13
  6.3299998E-03    1.8988936E-13
  6.3649998E-03   -2.8912934E-13
  6.3999998E-03   -2.3597313E-13
  6.4349999E-03    2.3519489E-13
  6.4699999E-03    2.3309775E-13
  6.5049999E-03   -2.3642571E-13
  6.5400000E-03   -2.2208216E-13
  6.5750000E-03    3.0404862E-13
  6.6100000E-03    2.4723951E-13
  6.6450001E-03   -4.3112828E-13
  6.6800001E-03   -3.5930460E-13
  6.7150001E-03    5.8596037E-13
  6.7500002E-03    6.2182735E-13
  6.7850002E-03   -6.6929697E-13
  6.8199998E-03   -1.0506064E-12
  6.8549998E-03    5.2074984E-13
  6.8899998E-03    1.5211414E-12
  6.9249999E-03   -5.3634943E-14
  6.9599999E-03   -1.8194576E-12
  6.9949999E-03   -6.4825071E-13
  7.0300000E-03    1.8171173E-12
  7.0650000E-03    1.4466679E-12
  7.1000000E-03   -1.4887433E-12
  7.1350001E-03   -2.2755012E-12
  7.1700001E-03    7.3902559E-13
  7.2050001E-03    2.9829117E-12
  7.2400002E-03    5.4253721E-13
  7.2750002E-03   -3.1862670E-12
  7.3099998E-03   -2.1481235E-12
  7.3449998E-03    2.5860633E-12
  7.3799998E-03    3.5674267E-12
  7.4149999E-03   -1.3256799E-12
  7.4499999E-03   -4.4870141E-12
  7.4850000E-03   -3.0674901E-13
  7.5200000E-03    4.8571737E-12
  7.5550000E-03    2.2373882E-12
  7.5900001E-03   -4.4061499E-12
  7.6250001E-03   -4.1551519E-12
  7.6600001E-03    2.8453559E-12
  7.6950002E-03    5.2122876E-12
  7.7300002E-03   -7.1466173E-13
  7.7650002E-03   -4.9855389E-12
  7.7999998E-03   -1.0016265E-12
  7.8349998E-03    4.0698222E-12
  7.8699999E-03    2.1702473E-12
  7.9049999E-03   -2.8499527E-12
  7.9399999E-03   -3.0605726E-12
  7.9750000E-03    9.1520476E-13
  8.0100000E-03    2.9281462E-12
  8.0450000E-03    1.2523811E-12
  8.0800001E-03   -1.1149507E-12
  8.1150001E-03   -1.9234885E-12
  8.1500001E-03   -9.0137262E-13
  8.1850002E-03    9.7266260E-13
  8.2200002E-03    1.4094350E-12
  8.2550002E-03   -3.8200571E-13
  8.2900003E-03   -1.3485437E-12
  8.3250003E-03    6.0809344E-13
  8.3600003E-03    2.1374905E-12
  8.3950004E-03    1.2119534E-13
  8.4300004E-03   -2.2956901E-12
  8.4650004E-03   -1.4567594E-12
  8.5000005E-03    4.1599160E-13
  8.5349996E-03    7.2906969E-13
  8.5699996E-03    1.3579122E-12
  8.6049996E-03    2.2123449E-12
  8.6399997E-03   -5.8623115E-13
  8.6749997E-03   -4.5462883E-12
  8.7099997E-03   -1.4422239E-12
  8.7449998E-03    5.7682973E-12
  8.7799998E-03    3.3999019E-12
  8.8149998E-03   -7.2614783E-12
  8.8499999E-03   -6.5833320E-12
  8.8849999E-03    8.1705701E-12
  8.9199999E-03    1.1601999E-11
  8.9550000E-03   -6.0514007E-12
  8.9900000E-03   -1.5868579E-11
  9.0250000E-03    1.3403765E-12
  9.0600001E-03    1.7691324E-11
  9.0950001E-03    4.5147466E-12
  9.1300001E-03   -1.6573848E-11
  9.1650002E-03   -1.0091076E-11
  9.2000002E-03    1.2621068E-11
  9.2350002E-03    1.3999769E-11
  9.2700003E-03   -6.2730424E-12
  9.3050003E-03   -1.4250408E-11
  9.3400003E-03    1.3479112E-13
  9.3750004E-03    1.1710296E-11
  9.4100004E-03    5.2694368E-12
  9.4450004E-03   -6.4286558E-12
  9.4799995E-03   -9.1937109E-12
  9.5149996E-03   -1.7262855E-12
  9.5499996E-03    9.8097702E-12
  9.5849996E-03    1.1616371E-11
  9.6199997E-03   -4.3547154E-12
  9.6549997E-03   -1.7345734E-11
  9.6899997E-03   -2.6148500E-12
  9.7249998E-03    1.9258681E-11
  9.7599998E-03    8.4602516E-12
  9.7949998E-03   -2.0268873E-11
  9.8299999E-03   -1.4798905E-11
  9.8649999E-03    2.0700346E-11
  9.8999999E-03    2.4847100E-11
  9.9350000E-03   -1.3749538E-11
  9.9700000E-03   -3.0482367E-11
  1.0005000E-02    3.4188366E-12
  1.0040000E-02    2.8416516E-11
  1.0075000E-02    3.2578191E-12
  1.0110000E-02   -2.2671913E-11
  1.0145000E-02   -3.6907873E-12
  1.0180000E-02    2.1451334E-11
  1.0215000E-02    8.4628346E-12
  1.0250000E-02   -1.5212323E-11
  1.0285000E-02   -1.1720601E-11
  1.0320000E-02    4.0044409E-12
  1.0355000E-02    7.1955345E-12
  1.0390000E-02    3.3585073E-12
  1.0425000E-02    9.4479817E-13
  1.0460000E-02   -1.9236461E-12
  1.0495000E-02    4.9917926E-13
  1.0530000E-02    9.5327643E-12
  1.0565000E-02    5.1904752E-12
  1.0600000E-02   -1.8925124E-11
  1.0635000E-02   -2.5231435E-11
  1.0670000E-02    1.3275838E-11
  1.0705000E-02    4.6697830E-11
  1.0740000E-02    1.2032344E-11
  1.0775000E-02   -4.5960950E-11
  1.0810000E-02   -2.9545047E-11
  1.0845000E-02    3.7423082E-11
  1.0880000E-02    3.9183518E-11
  1.0915000E-02   -2.6985905E-11
  1.0950000E-02   -4.7560400E-11
  1.0985000E-02    9.2699902E-12
  1.1020000E-02    5.2678972E-11
  1.1055000E-02    2.0820397E-11
  1.1090000E-02   -3.6094818E-11
  1.1125000E-02   -3.4404053E-11
  1.1160000E-02    1.8281501E-11
  1.1195000E-02    3.1003075E-11
  1.1230000E-02   -1.3737489E-11
  1.1265000E-02   -2.8453876E-11
  1.1300000E-02    1.2655908E-11
  1.1335000E-02    3.8668176E-11
  1.1370000E-02    1.6522731E-11
  1.1405000E-02   -2.8223245E-11
  1.1440000E-02   -5.5551019E-11
  1.1475000E-02   -1.6962882E-11
  1.1510000E-02    5.8291781E-11
  1.1545000E-02    5.7982209E-11
  1.1580000E-02   -1.9166077E-11
  1.1615000E-02   -5.0749294E-11
  1.1650000E-02   -6.6930268E-12
  1.1685000E-02    2.9862612E-11
  1.1720000E-02    6.7247050E-12
  1.1755000E-02   -4.3889860E-11
  1.1790000E-02   -3.0538520E-11
  1.1825000E-02    6.0831673E-11
  1.1860000E-02    8.1186911E-11
  1.1895000E-02   -2.8978882E-11
  1.1930000E-02   -8.9373002E-11
  1.1965000E-02   -1.4422227E-11
  1.2000000E-02    3.7770276E-11
  1.2035000E-02   -3.9092228E-12
  1.2070000E-02   -2.4554303E-11
  1.2105000E-02    2.4909047E-11
  1.2140000E-02    6.3667571E-11
  1.2175000E-02    2.0804698E-11
  1.2210000E-02   -6.5340275E-11
  1.2245000E-02   -7.3051509E-11
  1.2280000E-02    1.2035652E-11
  1.2315000E-02    3.7228939E-11
  1.2350000E-02   -3.2578676E-11
  1.2385000E-02   -2.5765360E-11
  1.2420000E-02    7.8983979E-11
  1.2455000E-02    7.9976442E-11
  1.2490000E-02   -4.7431600E-11
  1.2525000E-02   -1.0427160E-10
  1.2560000E-02   -4.3299336E-11
  1.2595000E-02    1.5763143E-11
  1.2630000E-02    3.5921273E-11
  1.2665000E-02    3.3623816E-11
  1.2700000E-02    1.6776514E-11
  1.2735000E-02    1.1835420E-11
  1.2770000E-02   -2.5852235E-11
  1.2805000E-02   -9.2566725E-11
  1.2840000E-02   -3.0134822E-11
  1.2875000E-02    8.1364741E-11
  1.2910000E-02    6.2257335E-12
  1.2945000E-02   -5.5626219E-11
  1.2980000E-02    6.8010562E-11
  1.3015000E-02    4.9168510E-11
  1.3050000E-02   -9.6342836E-11
  1.3085000E-02   -3.3749482E-11
  1.3120000E-02    1.7312469E-11
  1.3155000E-02   -5.5473813E-11
  1.3190000E-02    4.6609154E-11
  1.3225000E-02    5.9499253E-11
  1.3260000E-02   -1.4470565E-10
  1.3295000E-02   -7.2437061E-12
  1.3330000E-02    1.9921687E-10
  1.3365000E-02   -4.9839379E-11
  1.3400000E-02   -8.7919762E-11
  1.3435000E-02    1.5324157E-10
  1.3470000E-02   -9.0935898E-11
  1.3505000E-02   -2.5194161E-10
  1.3540000E-02    8.7699542E-11
  1.3575000E-02    4.2055352E-11
  1.3610000E-02   -9.8183191E-11
  1.3645000E-02    2.3616967E-10
  1.3680000E-02    1.2099934E-10
  1.3715000E-02   -1.8227941E-10
  1.3750000E-02    2.0707100E-10
  1.3785000E-02    6.9984081E-11
  1.3820000E-02   -6.3381100E-10
  1.3855000E-02   -1.4717458E-10
  1.3890000E-02    5.2642002E-10
  1.3925000E-02    3.2712947E-11
  1.3960000E-02   -1.0686706E-10
  1.3995000E-02    1.9400102E-10
  1.4030000E-02   -2.3410646E-10
  1.4065000E-02   -1.7970067E-10
  1.4100000E-02    4.7513388E-10
  1.4135000E-02    1.0406648E-10
  1.4170000E-02   -3.5268014E-10
  1.4205000E-02   -4.5022316E-11
  1.4240000E-02   -1.6431549E-10
  1.4275000E-02   -9.0416341E-11
  1.4310000E-02    5.5472177E-10
  1.4345000E-02    3.7872355E-11
  1.4380000E-02   -6.2704530E-10
  1.4415000E-02    2.2297843E-10
  1.4450000E-02    4.8829096E-10
  1.4485000E-02   -3.5182657E-10
  1.4520000E-02   -1.6866607E-10
  1.4555000E-02    2.6145736E-10
  1.4590000E-02   -9.9679986E-11
  1.4625000E-02    2.6703098E-11
  1.4660000E-02    2.3511723E-10
  1.4695000E-02   -1.8024839E-10
  1.4730000E-02   -6.6127229E-11
  1.4765000E-02    1.7264880E-10
  1.4800000E-02   -1.9727370E-10
  1.4835000E-02   -5.0682208E-11
  1.4870000E-02    2.4313887E-10
  1.4905000E-02   -1.4900936E-10
  1.4940000E-02   -8.9943140E-12
  1.4975000E-02    4.5546333E-10
  1.5010000E-02    2.1693742E-11
  1.5045000E-02   -3.3360714E-10
  1.5080000E-02   -1.2678793E-10
  1.5115000E-02   -6.3048872E-11
  1.5150000E-02    1.1688549E-10
  1.5185000E-02    5.6352749E-11
  1.5220000E-02   -3.6625800E-10
  1.5255000E-02    1.7988346E-10
  1.5290000E-02    7.5979789E-10
  1.5325000E-02   -4.7147255E-11
  1.5360000E-02   -3.9289913E-10
  1.5395000E-02    6.3085849E-11
  1.5430000E-02   -2.8755376E-10
  1.5465000E-02   -2.1623954E-10
  1.5500000E-02    5.0596777E-10
  1.5535000E-02    1.5630476E-11
  1.5570000E-02   -2.8988947E-10
  1.5605000E-02    4.0193673E-10
  1.5640000E-02   -8.7325848E-11
  1.5675001E-02   -6.9817685E-10
  1.5710000E-02    1.3225970E-10
  1.5745001E-02    4.0524012E-10
  1.5780000E-02    1.8413042E-10
  1.5814999E-02    5.1230481E-10
  1.5850000E-02   -1.6206640E-10
  1.5884999E-02   -9.0606528E-10
  1.5920000E-02    6.6010905E-11
  1.5954999E-02    4.4381310E-10
  1.5990000E-02   -1.4990488E-10
  1.6024999E-02    1.3155557E-10
  1.6060000E-02   -6.1006117E-11
  1.6094999E-02   -4.6889426E-10
  1.6130000E-02    5.8549404E-10
  1.6164999E-02    5.3233451E-10
  1.6200000E-02   -7.0621448E-10
  1.6235000E-02   -7.3283957E-12
  1.6270000E-02    6.1393340E-10
  1.6305000E-02   -4.7308618E-10
  1.6340001E-02   -7.7494405E-10
  1.6375000E-02   -4.6261453E-10
  1.6410001E-02    5.0169122E-11
  1.6445000E-02    1.3370662E-09
  1.6480001E-02    7.5639844E-10
  1.6515000E-02   -8.1248902E-10
  1.6550001E-02    3.4060552E-10
  1.6585000E-02    4.0782930E-10
  1.6620001E-02   -1.6247824E-09
  1.6655000E-02   -1.0608384E-10
  1.6690001E-02    1.6187393E-09
  1.6725000E-02   -1.0730632E-09
  1.6759999E-02   -1.1591295E-09
  1.6795000E-02    1.1891516E-09
  1.6829999E-02    1.7950745E-10
  1.6865000E-02   -3.1995187E-10
  1.6899999E-02    1.1886125E-09
  1.6935000E-02   -2.5011263E-10
  1.6969999E-02   -1.4894396E-09
  1.7005000E-02    4.5663781E-10
  1.7039999E-02    1.7787537E-10
  1.7075000E-02   -2.1352120E-10
  1.7109999E-02    1.4499715E-09
  1.7145000E-02   -5.5293187E-10
  1.7180000E-02   -2.2214472E-09
  1.7215000E-02    1.0227245E-09
  1.7250000E-02    7.5843337E-10
  1.7285001E-02   -1.2540921E-09
  1.7320000E-02    1.5786142E-09
  1.7355001E-02    9.6409669E-10
  1.7390000E-02   -2.0549109E-09
  1.7425001E-02    4.3291598E-10
  1.7460000E-02    7.4330225E-10
  1.7495001E-02   -1.6445619E-09
  1.7530000E-02    1.6828009E-09
  1.7565001E-02    1.9407378E-09
  1.7600000E-02   -2.0408832E-09
  1.7635001E-02   -1.1373428E-09
  1.7670000E-02    3.0618713E-10
  1.7704999E-02   -1.5485256E-09
  1.7740000E-02    1.7629982E-09
  1.7774999E-02    3.7887551E-09
  1.7810000E-02   -1.5432978E-09
  1.7844999E-02   -1.2203769E-09
  1.7880000E-02    1.0111387E-09
  1.7914999E-02   -2.9159670E-09
  1.7950000E-02   -1.0092509E-09
  1.7984999E-02    5.4237983E-09
  1.8020000E-02   -1.4860014E-09
  1.8054999E-02   -5.3777778E-09
  1.8090000E-02    6.9701556E-10
  1.8124999E-02    9.3909247E-10
  1.8160000E-02    6.9707790E-10
  1.8195000E-02    5.0799218E-09
  1.8230001E-02    1.3322363E-09
  1.8265000E-02   -2.3945459E-09
  1.8300001E-02    1.8927286E-09
  1.8335000E-02   -2.9805887E-09
  1.8370001E-02   -6.2807630E-09
  1.8405000E-02    3.2136822E-09
  1.8440001E-02    5.1822395E-09
  1.8475000E-02    2.4737098E-10
  1.8510001E-02    2.3069993E-09
  1.8545000E-02   -7.3663697E-10
  1.8580001E-02   -8.0958040E-09
  1.8615000E-02   -1.0206745E-09
  1.8650001E-02    4.7962851E-09
  1.8685000E-02   -5.2837134E-11
  1.8719999E-02    1.2164530E-09
  1.8755000E-02    1.9951494E-09
  1.8789999E-02   -3.8178123E-09
  1.8825000E-02   -1.2721916E-09
  1.8859999E-02    3.3968452E-09
  1.8895000E-02   -2.0504475E-10
  1.8929999E-02    1.6731969E-10
  1.8965000E-02    1.9334687E-09
  1.8999999E-02   -3.4611523E-09
  1.9035000E-02   -4.1344870E-09
  1.9069999E-02    7.1018103E-10
  1.9105000E-02    1.0332557E-09
  1.9140000E-02    2.5326197E-09
  1.9175000E-02    3.2865048E-09
  1.9210000E-02   -2.7540743E-09
  1.9245001E-02   -3.5774355E-09
  1.9280000E-02    2.3150220E-09
  1.9315001E-02    7.9062545E-10
  1.9350000E-02   -2.4061821E-09
  1.9385001E-02    1.0455565E-09
  1.9420000E-02   -2.4394534E-10
  1.9455001E-02   -3.2707959E-09
  1.9490000E-02    2.2141935E-09
  1.9525001E-02    3.7290810E-09
  1.9560000E-02   -1.5850655E-09
  1.9595001E-02    6.6881431E-11
  1.9630000E-02    8.5208468E-10
  1.9664999E-02   -3.9377643E-09
  1.9700000E-02   -1.7773266E-09
  1.9734999E-02    4.1480748E-09
  1.9770000E-02    3.5290753E-09
  1.9804999E-02    6.6872241E-10
  1.9840000E-02   -1.1131986E-09
  1.9874999E-02   -3.7096508E-09
  1.9910000E-02   -1.7569761E-09
  1.9944999E-02    1.6587282E-09
  1.9980000E-02   -1.2209820E-09
  2.0014999E-02   -1.1352818E-09
  2.0050000E-02    2.4067532E-09
  2.0085000E-02   -4.2767274E-09
  2.0120000E-02   -5.9312604E-09
  2.0155000E-02    3.8904746E-09
  2.0190001E-02    6.0172156E-09
  2.0225000E-02   -5.9356975E-10
  2.0260001E-02    2.2508644E-10
  2.0295000E-02    7.0004486E-10
  2.0330001E-02   -4.8475730E-09
  2.0365000E-02   -2.3745446E-09
  2.0400001E-02    2.1867692E-09
  2.0435000E-02    2.3324742E-10
  2.0470001E-02    1.3345020E-09
  2.0505000E-02    2.3191751E-09
  2.0540001E-02   -3.2447673E-09
  2.0575000E-02   -5.7209166E-09
  2.0609999E-02   -1.5754307E-09
  2.0645000E-02    2.7577820E-09
  2.0679999E-02    5.9056844E-09
  2.0715000E-02    4.9916067E-09
  2.0749999E-02    1.0034451E-10
  2.0785000E-02   -1.9742428E-09
  2.0819999E-02   -3.6782009E-09
  2.0855000E-02   -6.1379475E-09
  2.0889999E-02   -2.3912072E-10
  2.0925000E-02    6.3509731E-09
  2.0959999E-02    1.1385753E-09
  2.0995000E-02   -2.1525870E-09
  2.1029999E-02    2.1628956E-09
  2.1065000E-02   -6.5282629E-10
  2.1100000E-02   -4.3211124E-09
  2.1135001E-02    1.3448145E-09
  2.1170000E-02    2.4766913E-09
  2.1205001E-02   -3.3376126E-09
  2.1240000E-02   -1.7207707E-09
  2.1275001E-02    2.3217297E-09
  2.1310000E-02    2.8967100E-11
  2.1345001E-02   -3.0208386E-10
  2.1380000E-02    8.0920709E-10
  2.1415001E-02   -1.9839512E-09
  2.1450000E-02   -1.9990432E-09
  2.1485001E-02    6.0789623E-10
  2.1520000E-02   -2.6512897E-10
  2.1555001E-02    6.8651790E-10
  2.1590000E-02    4.3734594E-09
  2.1624999E-02    3.0584675E-09
  2.1660000E-02   -1.1209755E-09
  2.1694999E-02   -2.6221365E-09
  2.1730000E-02   -2.2381141E-09
  2.1764999E-02   -2.7276709E-10
  2.1800000E-02    2.1140623E-09
  2.1834999E-02    2.6630651E-09
  2.1870000E-02    1.8968562E-09
  2.1904999E-02   -1.1199047E-09
  2.1940000E-02   -4.4604702E-09
  2.1974999E-02   -2.2059841E-09
  2.2010000E-02    1.2241473E-09
  2.2045000E-02   -4.6183379E-10
  2.2080000E-02   -3.4806832E-10
  2.2115000E-02    3.4647343E-09
  2.2150001E-02    2.7050007E-09
  2.2185000E-02   -1.0239153E-09
  2.2220001E-02   -1.3375062E-09
  2.2255000E-02    7.1343137E-10
  2.2290001E-02    2.7950489E-09
  2.2325000E-02    2.4529994E-09
  2.2360001E-02    1.8462551E-10
  2.2395000E-02    1.5341454E-09
  2.2430001E-02    3.3099761E-09
  2.2465000E-02   -3.6964276E-10
  2.2500001E-02   -2.5660498E-09
  2.2535000E-02   -7.5213175E-10
  2.2569999E-02   -1.8896782E-09
  2.2605000E-02   -2.9262734E-09
  2.2639999E-02   -2.8989688E-10
  2.2675000E-02    1.7158387E-09
  2.2709999E-02    4.5345292E-09
  2.2745000E-02    5.4826583E-09
  2.2779999E-02   -1.7723141E-09
  2.2815000E-02   -4.6074806E-09
  2.2849999E-02    3.2742711E-09
  2.2885000E-02    3.5168681E-09
  2.2919999E-02   -2.7386682E-09
  2.2955000E-02    1.2312253E-09
  2.2990000E-02    3.4502297E-09
  2.3025000E-02   -4.5364303E-09
  2.3060000E-02   -2.9721487E-09
  2.3095001E-02    5.8143081E-09
  2.3130000E-02    1.6687483E-09
  2.3165001E-02   -4.5418487E-09
  2.3200000E-02    6.1669769E-10
  2.3235001E-02    2.2795132E-09
  2.3270000E-02   -3.4447634E-09
  2.3305001E-02   -1.4506056E-09
  2.3340000E-02    5.3732832E-09
  2.3375001E-02    4.4933337E-09
  2.3410000E-02    5.4662208E-10
  2.3445001E-02   -2.5543234E-10
  2.3480000E-02   -3.9549897E-09
  2.3514999E-02   -8.8709520E-09
  2.3550000E-02   -3.6934962E-09
  2.3584999E-02    5.8030265E-09
  2.3620000E-02    4.1538746E-09
  2.3654999E-02   -1.6255748E-09
  2.3690000E-02    1.4379140E-09
  2.3724999E-02    2.9837435E-09
  2.3760000E-02   -3.3309140E-09
  2.3794999E-02   -3.1796425E-09
  2.3830000E-02    3.1979583E-09
  2.3864999E-02    1.9902833E-09
  2.3900000E-02   -1.4595756E-09
  2.3934999E-02    5.6370153E-10
  2.3970000E-02   -9.6792345E-11
  2.4005000E-02   -2.5608273E-09
  2.4040001E-02    1.3395814E-09
  2.4075000E-02    3.8603116E-09
  2.4110001E-02   -7.4381351E-10
  2.4145000E-02   -2.4880620E-09
  2.4180001E-02   -2.0706015E-10
  2.4215000E-02   -1.9995952E-09
  2.4250001E-02   -2.4992175E-09
  2.4285000E-02    4.0240540E-09
  2.4320001E-02    6.3033756E-09
  2.4355000E-02   -1.8047883E-10
  2.4390001E-02   -2.4369011E-09
  2.4425000E-02    7.7510182E-10
  2.4460001E-02   -2.0065900E-09
  2.4495000E-02   -5.4360356E-09
  2.4529999E-02    1.2917972E-10
  2.4565000E-02    4.0458121E-09
  2.4599999E-02    1.8188648E-10
  2.4635000E-02   -7.5307580E-11
  2.4669999E-02    1.9094659E-09
  2.4705000E-02   -3.2033523E-09
  2.4739999E-02   -5.4301830E-09
  2.4775000E-02    1.6369669E-09
  2.4809999E-02    3.7251198E-09
  2.4845000E-02   -5.1145144E-10
  2.4879999E-02    1.8343795E-09
  2.4915000E-02    4.2719743E-09
  2.4950000E-02   -2.0657003E-09
  2.4985000E-02   -4.0088923E-09
  2.5020000E-02    1.1798471E-09
  2.5055001E-02   -1.6614286E-09
  2.5090000E-02   -5.7863536E-09
  2.5125001E-02    2.2962772E-09
  2.5160000E-02    6.5757315E-09
  2.5195001E-02   -1.4126271E-09
  2.5230000E-02   -1.8306268E-09
  2.5265001E-02    4.4326347E-09
  2.5300000E-02   -2.8783448E-10
  2.5335001E-02   -5.0743627E-09
  2.5370000E-02    1.1284282E-09
  2.5405001E-02    2.5839269E-09
  2.5440000E-02   -2.1750668E-09
  2.5474999E-02    9.7468222E-10
  2.5510000E-02    4.7425370E-09
  2.5544999E-02    3.9387130E-10
  2.5580000E-02   -1.0775244E-09
  2.5614999E-02    2.2216207E-09
  2.5650000E-02    1.9686930E-12
  2.5684999E-02   -3.4067971E-09
  2.5720000E-02    1.0169255E-09
  2.5754999E-02    5.0877627E-09
  2.5790000E-02    5.5543481E-10
  2.5824999E-02   -1.9125772E-09
  2.5860000E-02    3.4272416E-09
  2.5895000E-02    2.3576572E-09
  2.5930000E-02   -4.9187667E-09
  2.5965000E-02   -2.3578264E-10
  2.6000001E-02    7.5943483E-09
  2.6035000E-02    6.4612332E-10
  2.6070001E-02   -3.4807457E-09
  2.6105000E-02    4.7776050E-09
  2.6140001E-02    1.2121854E-09
  2.6175000E-02   -9.7112700E-09
  2.6210001E-02   -1.9452489E-09
  2.6245000E-02    8.0517406E-09
  2.6280001E-02    5.1269300E-10
  2.6315000E-02   -2.2547384E-09
  2.6350001E-02    6.1871539E-09
  2.6385000E-02    2.1003970E-09
  2.6419999E-02   -8.0859914E-09
  2.6455000E-02   -2.4689126E-09
  2.6489999E-02    5.9057825E-09
  2.6525000E-02    1.1880926E-09
  2.6559999E-02   -1.3398833E-09
  2.6595000E-02    5.4132081E-09
  2.6629999E-02    4.2229726E-09
  2.6665000E-02   -4.8029971E-09
  2.6699999E-02   -3.6719254E-09
  2.6735000E-02    3.6854944E-09
  2.6769999E-02    2.9687228E-09
  2.6805000E-02   -1.5002165E-10
  2.6839999E-02    6.0799510E-10
  2.6875000E-02   -9.5197794E-10
  2.6910000E-02   -3.1338292E-09
  2.6945001E-02   -1.3277283E-09
  2.6980000E-02   -4.2289861E-10