 -4.8000002E-03    1.0000000E-24
 -4.7650002E-03    1.0000000E-24
 -4.7300002E-03    1.0000002E-24
 -4.6950001E-03    1.0000002E-24
 -4.6600001E-03    1.0000002E-24
 -4.6250001E-03    1.0000001E-24
 -4.5900000E-03    1.0000001E-24
 -4.5550000E-03    1.0000002E-24
 -4.5200000E-03    1.0000001E-24
 -4.4849999E-03    1.0000001E-24
 -4.4499999E-03    1.0000002E-24
 -4.4149999E-03    1.0000003E-24
 -4.3799998E-03    1.0000003E-24
 -4.3449998E-03    1.0000001E-24
 -4.3100002E-03    1.0000000E-24
 -4.2750002E-03    1.0000001E-24
 -4.2400002E-03    1.0000001E-24
 -4.2050001E-03    9.9999992E-25
 -4.1700001E-03    9.9999982E-25
 -4.1350001E-03    1.0000002E-24
 -4.1000000E-03    1.0000005E-24
 -4.0650000E-03    1.0000001E-24
 -4.0300000E-03    9.9999953E-25
 -3.9949999E-03    9.9999982E-25
 -3.9599999E-03    1.0000003E-24
 -3.9249999E-03    1.0000005E-24
 -3.8900001E-03    1.0000002E-24
 -3.8550000E-03    9.9999992E-25
 -3.8200000E-03    1.0000000E-24
 -3.7849999E-03    1.0000002E-24
 -3.7499999E-03    1.0000003E-24
 -3.7150001E-03    1.0000002E-24
 -3.6800001E-03    1.0000002E-24
 -3.6450000E-03    1.0000000E-24
 -3.6100000E-03    9.9999992E-25
 -3.5750000E-03    9.9999992E-25
 -3.5399999E-03    1.0000001E-24
 -3.5049999E-03    1.0000002E-24
 -3.4700001E-03    1.0000002E-24
 -3.4350001E-03    1.0000001E-24
 -3.4000000E-03    1.0000001E-24
 -3.3650000E-03    1.0000002E-24
 -3.3300000E-03    1.0000001E-24
 -3.2949999E-03    9.9999982E-25
 -3.2599999E-03    9.9999992E-25
 -3.2250001E-03    9.9999982E-25
 -3.1900001E-03    1.0000000E-24
 -3.1550000E-03    1.0000005E-24
 -3.1200000E-03    1.0000003E-24
 -3.0850000E-03    1.0000000E-24
 -3.0499999E-03    1.0000001E-24
 -3.0149999E-03    9.9999982E-25
 -2.9800001E-03    9.9999963E-25
 -2.9450001E-03    1.0000000E-24
 -2.9100000E-03    1.0000006E-24
 -2.8750000E-03    1.0000008E-24
 -2.8400000E-03    1.0000005E-24
 -2.8049999E-03    9.9999982E-25
 -2.7699999E-03    9.9999972E-25
 -2.7350001E-03    1.0000002E-24
 -2.7000001E-03    1.0000000E-24
 -2.6650000E-03    9.9999972E-25
 -2.6300000E-03    1.0000003E-24
 -2.5950000E-03    1.0000004E-24
 -2.5599999E-03    1.0000002E-24
 -2.5249999E-03    1.0000005E-24
 -2.4900001E-03    1.0000004E-24
 -2.4550001E-03    9.9999982E-25
 -2.4200000E-03    9.9999972E-25
 -2.3850000E-03    1.0000002E-24
 -2.3500000E-03    1.0000008E-24
 -2.3149999E-03    1.0000007E-24
 -2.2799999E-03    9.9999953E-25
 -2.2450001E-03    9.9999884E-25
 -2.2100001E-03    1.0000003E-24
 -2.1750000E-03    1.0000013E-24
 -2.1400000E-03    1.0000001E-24
 -2.1050000E-03    9.9999943E-25
 -2.0699999E-03    1.0000007E-24
 -2.0349999E-03    1.0000002E-24
 -2.0000001E-03    1.0000004E-24
 -1.9650001E-03    1.0000022E-24
 -1.9300000E-03    9.9998572E-25
 -1.8950000E-03    1.0000083E-24
 -1.8600000E-03    1.0000524E-24
 -1.8250000E-03    9.9996679E-25
 -1.7900000E-03    9.9993711E-25
 -1.7550000E-03    1.0000383E-24
 -1.7199999E-03    1.0001559E-24
 -1.6850000E-03    9.9983850E-25
 -1.6500000E-03    9.9981898E-25
 -1.6150000E-03    1.0006501E-24
 -1.5800000E-03    1.0004291E-24
 -1.5450000E-03    9.9863381E-25
 -1.5100000E-03    1.0002863E-24
 -1.4750001E-03    1.0023832E-24
 -1.4400000E-03    9.9856114E-25
 -1.4050000E-03    9.9232273E-25
 -1.3700000E-03    1.0038455E-24
 -1.3350000E-03    1.0121324E-24
 -1.3000000E-03    9.8089203E-25
 -1.2650000E-03    9.8179636E-25
 -1.2300001E-03    1.0217128E-24
 -1.1950000E-03    9.9095346E-25
 -1.1600000E-03    1.0182124E-24
 -1.1250000E-03    1.0965828E-24
 -1.0900000E-03    9.4858147E-25
 -1.0550000E-03    8.8903046E-25
 -1.0200000E-03    1.2352543E-24
 -9.8500005E-04    1.1780193E-24
 -9.5000002E-04    3.6329091E-25
 -9.1499998E-04    8.3056226E-25
 -8.8000001E-04    2.4038592E-24
 -8.4499997E-04    1.1843196E-24
 -8.1000000E-04   -8.8356040E-25
 -7.7500002E-04    4.6570625E-25
 -7.3999999E-04    4.9192818E-24
 -7.0500001E-04    1.4201282E-24
 -6.6999998E-04   -7.9459324E-24
 -6.3500000E-04   -3.5120364E-24
 -6.0000003E-04    1.0633682E-23
 -5.6499999E-04    8.7416335E-24
 -5.3000002E-04   -1.2163995E-23
 -4.9499999E-04   -1.4825841E-23
 -4.6000001E-04    1.7966296E-23
 -4.2500001E-04    3.2120838E-23
 -3.9000000E-04   -2.0113626E-23
 -3.5500000E-04   -7.1656969E-23
 -3.1999999E-04    1.4213975E-23
 -2.8499999E-04    1.3832608E-22
 -2.5000001E-04   -3.7995758E-24
 -2.1499999E-04   -2.6837247E-22
 -1.8000000E-04   -7.1883921E-23
 -1.4500000E-04    3.9504690E-22
 -1.1000000E-04    2.0227718E-22
 -7.5000004E-05   -5.8559510E-22
 -3.9999999E-05   -4.2067895E-22
 -4.9999999E-06    9.1263306E-22
  2.9999999E-05    1.0200187E-21
  6.5000000E-05   -1.2892516E-21
  9.9999997E-05   -2.1498874E-21
  1.3499999E-04    1.4695290E-21
  1.7000000E-04    3.9128058E-21
  2.0500000E-04   -9.7504228E-22
  2.3999999E-04   -6.1763819E-21
  2.7500000E-04    5.9476856E-23
  3.1000000E-04    1.0073522E-20
  3.4500001E-04    3.5645600E-21
  3.8000001E-04   -1.4134631E-20
  4.1499999E-04   -1.0092401E-20
  4.4999999E-04    1.7906019E-20
  4.8500000E-04    2.1046086E-20
  5.2000000E-04   -2.0440034E-20
  5.5499998E-04   -3.8248046E-20
  5.9000001E-04    1.7986962E-20
  6.2499999E-04    6.2978734E-20
  6.6000002E-04   -5.0402542E-21
  6.9500000E-04   -9.4363213E-20
  7.3000003E-04   -2.5670545E-20
  7.6500000E-04    1.3419373E-19
  7.9999998E-04    8.9924039E-20
  8.3500001E-04   -1.6707751E-19
  8.6999999E-04   -1.8904731E-19
  9.0500002E-04    1.7666894E-19
  9.4000000E-04    3.3452495E-19
  9.7499997E-04   -1.2502620E-19
  1.0100000E-03   -5.1905201E-19
  1.0450000E-03   -2.0862052E-20
  1.0800000E-03    7.3957045E-19
  1.1150000E-03    3.1951332E-19
  1.1500000E-03   -9.2652159E-19
  1.1849999E-03   -8.0757457E-19
  1.2200000E-03    9.9594500E-19
  1.2550000E-03    1.5294597E-18
  1.2900000E-03   -7.8007521E-19
  1.3250000E-03   -2.4444963E-18
  1.3600000E-03    7.5011013E-20
  1.3950000E-03    3.4292981E-18
  1.4299999E-03    1.3433234E-18
  1.4650000E-03   -4.2122374E-18
  1.5000000E-03   -3.6667969E-18
  1.5350000E-03    4.2637740E-18
  1.5700000E-03    6.9011885E-18
  1.6050000E-03   -2.9423356E-18
  1.6400000E-03   -1.0901735E-17
  1.6749999E-03   -7.2862773E-19
  1.7100000E-03    1.4769121E-17
  1.7450000E-03    7.4867001E-18
  1.7800000E-03   -1.7239418E-17
  1.8150000E-03   -1.8205054E-17
  1.8500000E-03    1.5820423E-17
  1.8850000E-03    3.2571752E-17
  1.9200000E-03   -7.6146128E-18
  1.9550000E-03   -4.9183388E-17
  1.9900000E-03   -1.1449636E-17
  2.0250001E-03    6.3947143E-17
  2.0600001E-03    4.4481939E-17
  2.0949999E-03   -7.0259345E-17
  2.1299999E-03   -9.3210841E-17
  2.1650000E-03    5.8020427E-17
  2.2000000E-03    1.5541665E-16
  2.2350000E-03   -1.4976651E-17
  2.2700001E-03   -2.2307110E-16
  2.3050001E-03   -7.2764491E-17
  2.3399999E-03    2.7876614E-16
  2.3749999E-03    2.1592475E-16
  2.4100000E-03   -2.9374989E-16
  2.4450000E-03   -4.1557874E-16
  2.4800000E-03    2.3069781E-16
  2.5150001E-03    6.5914939E-16
  2.5500001E-03   -4.3875466E-17
  2.5849999E-03   -9.0822727E-16
  2.6199999E-03   -3.0775237E-16
  2.6550000E-03    1.0962411E-15
  2.6900000E-03    8.5333763E-16
  2.7250000E-03   -1.1205795E-15
  2.7600001E-03   -1.5847442E-15
  2.7950001E-03    8.5547061E-16
  2.8299999E-03    2.4411820E-15
  2.8649999E-03   -1.5975820E-16
  2.9000000E-03   -3.2774239E-15
  2.9350000E-03   -1.0818028E-15
  2.9700000E-03    3.8589872E-15
  3.0050001E-03    2.9123699E-15
  3.0400001E-03   -3.8775301E-15
  3.0749999E-03   -5.2686224E-15
  3.1099999E-03    2.9563269E-15
  3.1450000E-03    7.8977471E-15
  3.1800000E-03   -7.3679955E-16
  3.2150000E-03   -1.0329472E-14
  3.2500001E-03   -3.0323597E-15
  3.2850001E-03    1.1863203E-14
  3.3199999E-03    8.3576216E-15
  3.3549999E-03   -1.1626469E-14
  3.3900000E-03   -1.4872166E-14
  3.4250000E-03    8.6930094E-15
  3.4600000E-03    2.1727367E-14
  3.4950001E-03   -2.3153156E-15
  3.5300001E-03   -2.7592003E-14
  3.5649999E-03   -7.8989676E-15
  3.5999999E-03    3.0598923E-14
  3.6350000E-03    2.1580904E-14
  3.6700000E-03   -2.8667393E-14
  3.7050000E-03   -3.7387248E-14
  3.7400001E-03    1.9832211E-14
  3.7750001E-03    5.2799490E-14
  3.8099999E-03   -2.8429022E-15
  3.8449999E-03   -6.4226172E-14
  3.8800000E-03   -2.2210559E-14
  3.9149998E-03    6.7392889E-14
  3.9499998E-03    5.3297885E-14
  3.9849998E-03   -5.8089018E-14
  4.0199999E-03   -8.6124359E-14
  4.0549999E-03    3.3146676E-14
  4.0899999E-03    1.1409470E-13
  4.1250000E-03    8.3184192E-15
  4.1600000E-03   -1.2879160E-13
  4.1950000E-03   -6.3404746E-14
  4.2300001E-03    1.2145473E-13
  4.2650001E-03    1.2454256E-13
  4.3000001E-03   -8.5185236E-14
  4.3350002E-03   -1.7941455E-13
  4.3700002E-03    1.7515954E-14
  4.4049998E-03    2.1218810E-13
  4.4399998E-03    7.6981519E-14
  4.4749998E-03   -2.0615104E-13
  4.5099999E-03   -1.8496400E-13
  4.5449999E-03    1.4771319E-13
  4.5799999E-03    2.8408040E-13
  4.6150000E-03   -3.1158849E-14
  4.6500000E-03   -3.4474179E-13
  4.6850001E-03   -1.3610692E-13
  4.7200001E-03    3.3505327E-13
  4.7550001E-03    3.2970200E-13
  4.7900002E-03   -2.2869469E-13
  4.8250002E-03   -5.0755732E-13
  4.8600002E-03    1.5087261E-14
  4.8949998E-03    6.1501596E-13
  4.9299998E-03    2.9236168E-13
  4.9649999E-03   -5.9372288E-13
  4.9999999E-03   -6.5027541E-13
  5.0349999E-03    3.9478921E-13
  5.0700000E-03    9.8424079E-13
  5.1050000E-03    5.2083243E-15
  5.1400000E-03   -1.1935832E-12
  5.1750001E-03   -5.8514158E-13
  5.2100001E-03    1.1696541E-12
  5.2450001E-03    1.2676572E-12
  5.2800002E-03   -8.2232035E-13
  5.3150002E-03   -1.9190821E-12
  5.3500002E-03    1.1092284E-13
  5.3849998E-03    2.3662673E-12
  5.4199998E-03    9.3163682E-13
  5.4549999E-03   -2.4231400E-12
  5.4899999E-03   -2.1796668E-12
  5.5249999E-03    1.9326899E-12
  5.5600000E-03    3.4125489E-12
  5.5950000E-03   -8.2002726E-13
  5.6300000E-03   -4.3414764E-12
  5.6650001E-03   -8.5976977E-13
  5.7000001E-03    4.6695495E-12
  5.7350001E-03    2.9061939E-12
  5.7700002E-03   -4.1606289E-12
  5.8050002E-03   -4.9879198E-12
  5.8400002E-03    2.7076267E-12
  5.8749998E-03    6.6919352E-12
  5.9099998E-03   -3.8302692E-13
  5.9449999E-03   -7.6009138E-12
  5.9799999E-03   -2.5399854E-12
  6.0149999E-03    7.3953543E-12
  6.0500000E-03    5.6255747E-12
  6.0850000E-03   -5.9360633E-12
  6.1200000E-03   -8.3539200E-12
  6.1550001E-03    3.3098183E-12
  6.1900001E-03    1.0219063E-11
  6.2250001E-03    1.5884158E-13
  6.2600002E-03   -1.0850138E-11
  6.2950002E-03   -3.9581793E-12
  6.3299998E-03    1.0131994E-11
  6.3649998E-03    7.5428648E-12
  6.3999998E-03   -8.2148221E-12
  6.4349999E-03   -1.0493458E-11
  6.4699999E-03    5.4009822E-12
  6.5049999E-03    1.2557097E-11
  6.5400000E-03   -2.0566513E-12
  6.5750000E-03   -1.3644468E-11
  6.6100000E-03   -1.4238239E-12
  6.6450001E-03    1.3901623E-11
  6.6800001E-03    4.7879149E-12
  6.7150001E-03   -1.3658743E-11
  6.7500002E-03   -8.1469779E-12
  6.7850002E-03    1.3104973E-11
  6.8199998E-03    1.1923435E-11
  6.8549998E-03   -1.1911406E-11
  6.8899998E-03   -1.6341936E-11
  6.9249999E-03    9.4110726E-12
  6.9599999E-03    2.1180141E-11
  6.9949999E-03   -4.9081711E-12
  7.0300000E-03   -2.5793850E-11
  7.0650000E-03   -2.2012969E-12
  7.1000000E-03    2.9014607E-11
  7.1350001E-03    1.2158048E-11
  7.1700001E-03   -2.9054927E-11
  7.2050001E-03   -2.4139267E-11
  7.2400002E-03    2.4210078E-11
  7.2750002E-03    3.6165688E-11
  7.3099998E-03   -1.3621233E-11
  7.3449998E-03   -4.5541036E-11
  7.3799998E-03   -2.3156936E-12
  7.4149999E-03    4.9396088E-11
  7.4499999E-03    2.1723505E-11
  7.4850000E-03   -4.5335659E-11
  7.5200000E-03   -4.1075414E-11
  7.5550000E-03    3.2650098E-11
  7.5900001E-03    5.5971682E-11
  7.6250001E-03   -1.3405072E-11
  7.6600001E-03   -6.3520050E-11
  7.6950002E-03   -9.2004373E-12
  7.7300002E-03    6.2582182E-11
  7.7650002E-03    3.2279117E-11
  7.7999998E-03   -5.2224933E-11
  7.8349998E-03   -5.1754809E-11
  7.8699999E-03    3.3238599E-11
  7.9049999E-03    6.2902052E-11
  7.9399999E-03   -9.8667133E-12
  7.9750000E-03   -6.3825834E-11
  8.0100000E-03   -1.2887762E-11
  8.0450000E-03    5.5502970E-11
  8.0800001E-03    3.1183837E-11
  8.1150001E-03   -4.0597498E-11
  8.1500001E-03   -4.3487391E-11
  8.1850002E-03    2.0313549E-11
  8.2200002E-03    4.6204766E-11
  8.2550002E-03    2.8050205E-13
  8.2900003E-03   -3.9252285E-11
  8.3250003E-03   -1.6214691E-11
  8.3600003E-03    2.4961764E-11
  8.3950004E-03    2.2721344E-11
  8.4300004E-03   -1.0756046E-11
  8.4650004E-03   -2.3566546E-11
  8.5000005E-03   -4.5787102E-12
  8.5349996E-03    1.3650416E-11
  8.5699996E-03    1.0487654E-11
  8.6049996E-03   -2.4258566E-12
  8.6399997E-03   -9.3795900E-12
  8.6749997E-03   -8.6912526E-12
  8.7099997E-03   -2.2802118E-12
  8.7449998E-03    7.6843636E-12
  8.7799998E-03    9.3564219E-12
  8.8149998E-03   -6.0177896E-12
  8.8499999E-03   -1.9416654E-11
  8.8849999E-03   -4.9012149E-12
  8.9199999E-03    2.0099439E-11
  8.9550000E-03    1.0715952E-11
  8.9900000E-03   -2.6754050E-11
  9.0250000E-03   -3.1571502E-11
  9.0600001E-03    9.9417618E-12
  9.0950001E-03    3.0504058E-11
  9.1300001E-03   -6.0819722E-12
  9.1650002E-03   -3.6637429E-11
  9.2000002E-03   -7.7095587E-12
  9.2350002E-03    2.5834130E-11
  9.2700003E-03   -1.3324393E-12
  9.3050003E-03   -4.2071950E-11
  9.3400003E-03   -1.9775303E-11
  9.3750004E-03    2.7855005E-11
  9.4100004E-03    1.2692230E-11
  9.4450004E-03   -4.2542733E-11
  9.4799995E-03   -4.2662013E-11
  9.5149996E-03    8.4929754E-12
  9.5499996E-03    1.6012200E-11
  9.5849996E-03   -3.4299289E-11
  9.6199997E-03   -5.1903547E-11
  9.6549997E-03   -4.0357795E-12
  9.6899997E-03    2.8071663E-11
  9.7249998E-03   -8.1469588E-12
  9.7599998E-03   -5.1152325E-11
  9.7949998E-03   -3.6953773E-11
  9.8299999E-03   -3.7299395E-12
  9.8649999E-03   -1.5811292E-11
  9.8999999E-03   -5.1145119E-11
  9.9350000E-03   -4.4345187E-11
  9.9700000E-03   -3.2451186E-12
  1.0005000E-02    6.4864195E-13
  1.0040000E-02   -4.8179329E-11
  1.0075000E-02   -7.6842810E-11
  1.0110000E-02   -3.9084604E-11
  1.0145000E-02    2.1826345E-12
  1.0180000E-02   -2.8808605E-11
  1.0215000E-02   -8.5987092E-11
  1.0250000E-02   -6.3740374E-11
  1.0285000E-02    1.9519662E-11
  1.0320000E-02    3.0435505E-11
  1.0355000E-02   -6.3155883E-11
  1.0390000E-02   -1.2989729E-10
  1.0425000E-02   -8.4932943E-11
  1.0460000E-02   -1.7876792E-11
  1.0495000E-02   -3.0810663E-11
  1.0530000E-02   -8.2431853E-11
  1.0565000E-02   -8.8008066E-11
  1.0600000E-02   -5.6150820E-11
  1.0635000E-02   -3.2368011E-11
  1.0670000E-02   -1.9375446E-11
  1.0705000E-02   -3.0169197E-11
  1.0740000E-02   -8.7241173E-11
  1.0775000E-02   -1.2033674E-10
  1.0810000E-02   -4.5037096E-11
  1.0845000E-02    4.0303233E-11
  1.0880000E-02   -2.6021038E-11
  1.0915000E-02   -1.6482739E-10
  1.0950000E-02   -1.5514776E-10
  1.0985000E-02   -1.2116364E-11
  1.1020000E-02    3.5951447E-11
  1.1055000E-02   -6.6244350E-11
  1.1090000E-02   -1.3050770E-10
  1.1125000E-02   -6.1055709E-11
  1.1160000E-02    1.1152259E-11
  1.1195000E-02   -1.0706734E-11
  1.1230000E-02   -4.9091037E-11
  1.1265000E-02   -4.0456555E-11
  1.1300000E-02   -2.0008046E-11
  1.1335000E-02    3.3597188E-12
  1.1370000E-02    3.3976096E-11
  1.1405000E-02    1.7076672E-11
  1.1440000E-02   -5.1584671E-11
  1.1475000E-02   -8.6129305E-11
  1.1510000E-02   -5.2613504E-11
  1.1545000E-02    6.4394059E-12
  1.1580000E-02    5.0263321E-11
  1.1615000E-02    4.6375379E-11
  1.1650000E-02    1.0274850E-11
  1.1685000E-02    2.7993222E-11
  1.1720000E-02    1.1488239E-10
  1.1755000E-02    1.4983510E-10
  1.1790000E-02    6.2020084E-11
  1.1825000E-02   -2.5263864E-11
  1.1860000E-02    3.6071961E-11
  1.1895000E-02    1.6066555E-10
  1.1930000E-02    1.4389592E-10
  1.1965000E-02    2.6289897E-11
  1.2000000E-02    2.3830689E-11
  1.2035000E-02    1.2382553E-10
  1.2070000E-02    1.5151161E-10
  1.2105000E-02    1.1873612E-10
  1.2140000E-02    1.3360775E-10
  1.2175000E-02    1.8642132E-10
  1.2210000E-02    2.4498067E-10
  1.2245000E-02    2.8130726E-10
  1.2280000E-02    2.0462730E-10
  1.2315000E-02    5.8946951E-11
  1.2350000E-02    7.7086892E-11
  1.2385000E-02    2.5578256E-10
  1.2420000E-02    2.7083263E-10
  1.2455000E-02    9.9343714E-11
  1.2490000E-02    1.2927157E-10
  1.2525000E-02    3.6275374E-10
  1.2560000E-02    3.4227077E-10
  1.2595000E-02    9.5893578E-11
  1.2630000E-02    1.1310625E-10
  1.2665000E-02    3.1983269E-10
  1.2700000E-02    2.4074820E-10
  1.2735000E-02    3.9717979E-11
  1.2770000E-02    2.0891475E-10
  1.2805000E-02    4.7202209E-10
  1.2840000E-02    2.2456843E-10
  1.2875000E-02   -1.6114343E-10
  1.2910000E-02    9.5863588E-11
  1.2945000E-02    5.3259269E-10
  1.2980000E-02    2.0653577E-10
  1.3015000E-02   -3.2486089E-10
  1.3050000E-02   -5.7169904E-11
  1.3085000E-02    4.0488504E-10
  1.3120000E-02    1.8869760E-10
  1.3155000E-02   -9.5036853E-11
  1.3190000E-02    1.5843683E-10
  1.3225000E-02    3.4559830E-10
  1.3260000E-02    6.7944754E-11
  1.3295000E-02   -1.1728847E-10
  1.3330000E-02    1.1137689E-10
  1.3365000E-02    1.8457590E-10
  1.3400000E-02   -2.5464744E-10
  1.3435000E-02   -4.4373041E-10
  1.3470000E-02    7.7973447E-11
  1.3505000E-02    2.3912289E-10
  1.3540000E-02   -4.3366072E-10
  1.3575000E-02   -5.5599575E-10
  1.3610000E-02    2.2589680E-10
  1.3645000E-02    3.6277567E-10
  1.3680000E-02   -3.8199582E-10
  1.3715000E-02   -6.1670669E-10
  1.3750000E-02   -1.2752334E-10
  1.3785000E-02    1.2815542E-10
  1.3820000E-02   -1.6444447E-10
  1.3855000E-02   -5.2167626E-10
  1.3890000E-02   -4.3667289E-10
  1.3925000E-02   -7.5959246E-11
  1.3960000E-02   -8.6575538E-11
  1.3995000E-02   -4.6568160E-10
  1.4030000E-02   -7.5275786E-10
  1.4065000E-02   -8.7425817E-10
  1.4100000E-02   -6.0253169E-10
  1.4135000E-02    3.9087091E-11
  1.4170000E-02   -6.2892296E-11
  1.4205000E-02   -9.0693947E-10
  1.4240000E-02   -6.7882222E-10
  1.4275000E-02    4.5807669E-10
  1.4310000E-02    2.9856795E-10
  1.4345000E-02   -8.6898688E-10
  1.4380000E-02   -8.7578739E-10
  1.4415000E-02    8.0595385E-11
  1.4450000E-02    1.5836883E-10
  1.4485000E-02   -8.0021051E-10
  1.4520000E-02   -1.2371207E-09
  1.4555000E-02   -4.6369319E-10
  1.4590000E-02    4.1130384E-11
  1.4625000E-02   -6.5880595E-10
  1.4660000E-02   -8.0427087E-10
  1.4695000E-02    2.5394967E-10
  1.4730000E-02    2.7313710E-10
  1.4765000E-02   -7.6137402E-10
  1.4800000E-02   -4.6808524E-10
  1.4835000E-02    5.0566840E-10
  1.4870000E-02    2.2270605E-10
  1.4905000E-02   -5.1471433E-10
  1.4940000E-02   -6.6989247E-10
  1.4975000E-02   -4.6466805E-10
  1.5010000E-02   -4.5421365E-11
  1.5045000E-02   -4.0082767E-11
  1.5080000E-02   -4.2495496E-10
  1.5115000E-02    1.8035861E-11
  1.5150000E-02    5.7472277E-10
  1.5185000E-02    4.1128774E-11
  1.5220000E-02   -2.5182637E-10
  1.5255000E-02    8.1423805E-11
  1.5290000E-02   -9.0968538E-11
  1.5325000E-02   -6.3293440E-11
  1.5360000E-02    2.2109697E-10
  1.5395000E-02   -3.8600634E-10
  1.5430000E-02   -5.7440275E-10
  1.5465000E-02    3.4413719E-10
  1.5500000E-02    5.9940825E-10
  1.5535000E-02    5.7491112E-10
  1.5570000E-02    9.5153496E-10
  1.5605000E-02    1.0919621E-10
  1.5640000E-02   -9.2914898E-10
  1.5675001E-02    1.0119536E-10
  1.5710000E-02    1.3906761E-09
  1.5745001E-02    8.6624807E-10
  1.5780000E-02   -4.8293697E-10
  1.5814999E-02   -1.0941420E-09
  1.5850000E-02    5.6650164E-11
  1.5884999E-02    1.6677441E-09
  1.5920000E-02    9.4085373E-10
  1.5954999E-02   -9.9798525E-10
  1.5990000E-02   -1.0941482E-09
  1.6024999E-02    1.4320568E-10
  1.6060000E-02    1.0088689E-09
  1.6094999E-02    8.6097207E-10
  1.6130000E-02   -1.5699279E-10
  1.6164999E-02   -4.9379900E-10
  1.6200000E-02    2.1529512E-10
  1.6235000E-02    7.2519235E-10
  1.6270000E-02    1.2873935E-09
  1.6305000E-02    1.1990715E-09
  1.6340001E-02   -9.2309699E-10
  1.6375000E-02   -1.7817077E-09
  1.6410001E-02    4.5743090E-10
  1.6445000E-02    1.5820236E-09
  1.6480001E-02    1.1434645E-10
  1.6515000E-02   -1.0438963E-09
  1.6550001E-02   -8.6444102E-10
  1.6585000E-02    5.4231281E-10
  1.6620001E-02    1.3140946E-09
  1.6655000E-02   -3.1371761E-10
  1.6690001E-02   -1.1095437E-09
  1.6725000E-02    6.6233236E-10
  1.6759999E-02    2.6935990E-10
  1.6795000E-02   -1.5752929E-09
  1.6829999E-02   -3.9346001E-10
  1.6865000E-02    9.4939978E-10
  1.6899999E-02    1.2402457E-10
  1.6935000E-02   -5.6538407E-10
  1.6969999E-02   -4.1416962E-10
  1.7005000E-02    5.3838894E-10
  1.7039999E-02    1.3757909E-09
  1.7075000E-02   -1.1708955E-10
  1.7109999E-02   -1.4230676E-09
  1.7145000E-02    2.1820823E-10
  1.7180000E-02    4.3407897E-10
  1.7215000E-02   -1.4048196E-09
  1.7250000E-02   -1.2632212E-09
  1.7285001E-02   -1.8188652E-10
  1.7320000E-02    1.0802100E-10
  1.7355001E-02    9.1369395E-10
  1.7390000E-02    7.3450407E-10
  1.7425001E-02    3.9268941E-10
  1.7460000E-02    5.5381411E-10
  1.7495001E-02   -9.7938646E-10
  1.7530000E-02   -2.1379769E-09
  1.7565001E-02    5.4443561E-10
  1.7600000E-02    1.2967466E-09
  1.7635001E-02   -7.6220413E-10
  1.7670000E-02    2.4534699E-10
  1.7704999E-02    1.3160870E-09
  1.7740000E-02   -5.8177735E-10
  1.7774999E-02   -1.2822010E-09
  1.7810000E-02   -1.5885123E-09
  1.7844999E-02   -1.6097514E-09
  1.7880000E-02    1.6679217E-09
  1.7914999E-02    3.9055017E-09
  1.7950000E-02    8.7135305E-10
  1.7984999E-02   -3.9552930E-09
  1.8020000E-02   -4.6583244E-09
  1.8054999E-02    2.1917769E-10
  1.8090000E-02    4.8614033E-09
  1.8124999E-02    1.3619432E-09
  1.8160000E-02   -3.5600021E-09
  1.8195000E-02   -4.2761056E-10
  1.8230001E-02    1.6813879E-09
  1.8265000E-02   -1.8588812E-10
  1.8300001E-02    3.2598627E-10
  1.8335000E-02   -1.9379695E-10
  1.8370001E-02   -3.8852912E-09
  1.8405000E-02   -1.8670625E-09
  1.8440001E-02    2.3350992E-09
  1.8475000E-02    1.9513933E-09
  1.8510001E-02    1.0737913E-09
  1.8545000E-02   -3.4831038E-10
  1.8580001E-02   -2.8080758E-09
  1.8615000E-02   -6.8853390E-10
  1.8650001E-02    1.7527623E-09
  1.8685000E-02   -5.5064764E-10
  1.8719999E-02   -2.1201131E-10
  1.8755000E-02    1.3947914E-09
  1.8789999E-02   -1.5590910E-09
  1.8825000E-02   -2.2413200E-09
  1.8859999E-02   -2.0984761E-10
  1.8895000E-02   -1.2281913E-09
  1.8929999E-02    1.0133473E-10
  1.8965000E-02    4.0538524E-09
  1.8999999E-02    1.5021185E-09
  1.9035000E-02   -3.3206542E-09
  1.9069999E-02   -1.6255458E-09
  1.9105000E-02    1.9539419E-09
  1.9140000E-02    5.1839710E-10
  1.9175000E-02   -2.1933122E-09
  1.9210000E-02   -9.7679775E-10
  1.9245001E-02    1.9962003E-09
  1.9280000E-02    1.6289518E-09
  1.9315001E-02    1.1330158E-10
  1.9350000E-02    1.2681443E-09
  1.9385001E-02    1.4313252E-09
  1.9420000E-02   -4.5906762E-10
  1.9455001E-02   -2.2426892E-10
  1.9490000E-02    1.0629572E-09
  1.9525001E-02    6.9906164E-10
  1.9560000E-02    2.0438415E-10
  1.9595001E-02    6.9273220E-10
  1.9630000E-02    3.0565411E-10
  1.9664999E-02   -7.9662360E-10
  1.9700000E-02   -1.0769829E-09
  1.9734999E-02   -2.1126610E-10
  1.9770000E-02   -3.0451650E-10
  1.9804999E-02   -1.4640062E-09
  1.9840000E-02   -1.0898711E-09
  1.9874999E-02    2.0307152E-09
  1.9910000E-02    2.8801364E-09
  1.9944999E-02   -8.4568202E-10
  1.9980000E-02   -3.1176677E-09
  2.0014999E-02   -1.6557442E-10
  2.0050000E-02    3.7261025E-09
  2.0085000E-02    2.9571456E-09
  2.0120000E-02    1.1010627E-09
  2.0155000E-02    6.4391859E-10
  2.0190001E-02   -2.9062031E-09
  2.0225000E-02   -6.0615797E-09
  2.0260001E-02   -2.2071682E-09
  2.0295000E-02    4.1203174E-09
  2.0330001E-02    4.8541087E-09
  2.0365000E-02    1.5673517E-09
  2.0400001E-02   -1.7998040E-09
  2.0435000E-02   -3.4692742E-09
  2.0470001E-02   -3.2822869E-09
  2.0505000E-02   -3.6572607E-09
  2.0540001E-02   -2.6921796E-09
  2.0575000E-02    1.2170597E-09
  2.0609999E-02    3.2339071E-09
  2.0645000E-02   -8.6691695E-11
  2.0679999E-02   -2.9348921E-09
  2.0715000E-02   -2.0734898E-09
  2.0749999E-02    1.7171336E-11
  2.0785000E-02    9.8258379E-10
  2.0819999E-02    2.1303914E-10
  2.0855000E-02   -8.9075625E-10
  2.0889999E-02   -1.3702428E-09
  2.0925000E-02   -3.0093004E-09
  2.0959999E-02   -5.6250351E-09
  2.0995000E-02   -4.5917559E-09
  2.1029999E-02    4.7676635E-10
  2.1065000E-02    3.5168370E-09
  2.1100000E-02    3.7407959E-11
  2.1135001E-02   -6.0103549E-09
  2.1170000E-02   -6.5358674E-09
  2.1205001E-02    8.0587825E-10
  2.1240000E-02    7.0646968E-09
  2.1275001E-02    2.4777829E-09
  2.1310000E-02   -6.9329249E-09
  2.1345001E-02   -5.7628302E-09
  2.1380000E-02    4.9197091E-09
  2.1415001E-02    8.4624752E-09
  2.1450000E-02    8.7396962E-10
  2.1485001E-02   -5.4715197E-09
  2.1520000E-02   -4.5103787E-09
  2.1555001E-02   -1.1688469E-09
  2.1590000E-02    9.5046415E-10
  2.1624999E-02    1.0894593E-09
  2.1660000E-02   -7.5364159E-10
  2.1694999E-02   -2.3833862E-09
  2.1730000E-02   -2.2206816E-09
  2.1764999E-02   -1.1791365E-09
  2.1800000E-02    3.4757167E-10
  2.1834999E-02    7.5153872E-10
  2.1870000E-02   -1.0869377E-09
  2.1904999E-02   -1.4065593E-09
  2.1940000E-02    6.9248085E-10
  2.1974999E-02    3.5313358E-10
  2.2010000E-02   -5.1769250E-10
  2.2045000E-02    2.6576703E-09
  2.2080000E-02    3.7270551E-09
  2.2115000E-02   -4.5762771E-10
  2.2150001E-02   -8.2316615E-10
  2.2185000E-02    3.0229101E-09
  2.2220001E-02    1.8366747E-09
  2.2255000E-02   -1.7184986E-09
  2.2290001E-02   -9.5973696E-10
  2.2325000E-02    1.9053210E-10
  2.2360001E-02    7.1635264E-10
  2.2395000E-02    4.1917900E-09
  2.2430001E-02    4.7101159E-09
  2.2465000E-02   -1.1364600E-09
  2.2500001E-02   -4.1837143E-09
  2.2535000E-02   -1.9255098E-09
  2.2569999E-02   -5.0092808E-10
  2.2605000E-02    1.5370610E-09
  2.2639999E-02    4.7584172E-09
  2.2675000E-02    3.0548830E-09
  2.2709999E-02   -5.3166072E-10
  2.2745000E-02    4.5626250E-10
  2.2779999E-02    9.1080748E-10
  2.2815000E-02   -2.1068902E-09
  2.2849999E-02   -2.0994790E-09
  2.2885000E-02    8.3842355E-10
  2.2919999E-02    8.1082091E-10
  2.2955000E-02   -6.9288653E-10
  2.2990000E-02    5.1583049E-10
  2.3025000E-02    2.6612508E-09
  2.3060000E-02    2.7541103E-09
  2.3095001E-02    1.6305435E-09
  2.3130000E-02    1.7037155E-10
  2.3165001E-02   -1.3090014E-09
  2.3200000E-02    2.1425982E-10
  2.3235001E-02    2.8779992E-09
  2.3270000E-02   -6.9837003E-10
  2.3305001E-02   -5.0634212E-09
  2.3340000E-02    2.5654576E-10
  2.3375001E-02    5.7269656E-09
  2.3410000E-02    1.6880081E-09
  2.3445001E-02   -2.0232631E-09
  2.3480000E-02   -2.5550326E-09
  2.3514999E-02   -4.7857713E-09
  2.3550000E-02   -1.8639701E-09
  2.3584999E-02    3.6582457E-09
  2.3620000E-02    5.4237137E-10
  2.3654999E-02   -1.0227064E-09
  2.3690000E-02    5.7422658E-09
  2.3724999E-02    4.3150408E-09
  2.3760000E-02   -5.1519540E-09
  2.3794999E-02   -6.0681171E-09
  2.3830000E-02   -2.4379059E-09
  2.3864999E-02   -2.3879743E-09
  2.3900000E-02    6.0763672E-10
  2.3934999E-02    4.9183977E-09
  2.3970000E-02    2.0986137E-09
  2.4005000E-02   -2.0488444E-09
  2.4040001E-02   -3.8149175E-11
  2.4075000E-02    2.0438735E-09
  2.4110001E-02    1.0094198E-10
  2.4145000E-02   -2.7179550E-10
  2.4180001E-02    3.1532577E-10
  2.4215000E-02   -2.5649074E-09
  2.4250001E-02   -2.3761397E-09
  2.4285000E-02    3.1477869E-09
  2.4320001E-02    2.9574636E-09
  2.4355000E-02   -2.2153563E-09
  2.4390001E-02   -2.1861120E-09
  2.4425000E-02   -8.0053901E-11
  2.4460001E-02    1.1204200E-09
  2.4495000E-02    4.0316945E-09
  2.4529999E-02    2.2055922E-09
  2.4565000E-02   -2.9291365E-09
  2.4599999E-02   -5.3166765E-10
  2.4635000E-02    1.9134374E-09
  2.4669999E-02   -1.9690214E-09
  2.4705000E-02    8.5067786E-11
  2.4739999E-02    4.5126871E-09
  2.4775000E-02   -7.9040247E-10
  2.4809999E-02   -3.4293648E-09
  2.4845000E-02    3.4527523E-09
  2.4879999E-02    4.6921129E-09
  2.4915000E-02   -6.0617421E-11
  2.4950000E-02   -1.9410486E-10
  2.4985000E-02    2.9467523E-10
  2.5020000E-02   -5.7785476E-10
  2.5055001E-02    2.2627560E-09
  2.5090000E-02    3.1411542E-09
  2.5125001E-02   -9.2003105E-10
  2.5160000E-02    1.0642926E-10
  2.5195001E-02    5.4455280E-09
  2.5230000E-02    3.8215129E-09
  2.5265001E-02   -1.0712290E-09
  2.5300000E-02    2.5307520E-10
  2.5335001E-02    3.2357510E-09
  2.5370000E-02    2.4075764E-09
  2.5405001E-02    4.6585097E-10
  2.5440000E-02   -1.9667128E-09
  2.5474999E-02   -3.3073380E-09
  2.5510000E-02    4.0659276E-10
  2.5544999E-02    4.1948627E-09
  2.5580000E-02    2.0902946E-09
  2.5614999E-02   -1.0945268E-09
  2.5650000E-02   -1.0476234E-09
  2.5684999E-02    6.5792527E-10
  2.5720000E-02    2.9317810E-09
  2.5754999E-02    3.2201251E-09
  2.5790000E-02   -1.1010128E-10
  2.5824999E-02   -2.5901084E-09
  2.5860000E-02   -1.2298097E-09
  2.5895000E-02    1.1217359E-09
  2.5930000E-02    1.8353654E-09
  2.5965000E-02    1.2417744E-09
  2.6000001E-02    4.2600480E-12
  2.6035000E-02   -2.9311631E-09
  2.6070001E-02   -5.5363651E-09
  2.6105000E-02   -2.0392292E-09
  2.6140001E-02    3.7660457E-09
  2.6175000E-02    1.9278090E-09
  2.6210001E-02   -4.1701465E-09
  2.6245000E-02   -6.2573950E-09
  2.6280001E-02   -5.1392606E-09
  2.6315000E-02   -1.1414537E-09
  2.6350001E-02    4.1637542E-09
  2.6385000E-02    4.0139825E-09
  2.6419999E-02    2.9322430E-11
  2.6455000E-02   -3.1434324E-09
  2.6489999E-02   -6.5487917E-09
  2.6525000E-02   -5.8499463E-09
  2.6559999E-02   -3.7591197E-10
  2.6595000E-02    6.0297628E-10
  2.6629999E-02   -3.3384831E-10
  2.6665000E-02    2.1596360E-09
  2.6699999E-02   -1.0373734E-10
  2.6735000E-02   -4.6625779E-09
  2.6769999E-02   -1.9208382E-09
  2.6805000E-02   -1.7982171E-10
  2.6839999E-02   -3.4673251E-09
  2.6875000E-02   -1.9108732E-09
  2.6910000E-02    1.6993758E-09
  2.6945001E-02    1.5792076E-10
  2.6980000E-02   -2.0879019E-09