 -4.8000002E-03    1.0000000E-24
 -4.7650002E-03    1.0000002E-24
 -4.7300002E-03    1.0000001E-24
 -4.6950001E-03    1.0000002E-24
 -4.6600001E-03    1.0000002E-24
 -4.6250001E-03    1.0000000E-24
 -4.5900000E-03    1.0000000E-24
 -4.5550000E-03    1.0000001E-24
 -4.5200000E-03    1.0000001E-24
 -4.4849999E-03    9.9999972E-25
 -4.4499999E-03    1.0000000E-24
 -4.4149999E-03    1.0000005E-24
 -4.3799998E-03    1.0000005E-24
 -4.3449998E-03    9.9999982E-25
 -4.3100002E-03    9.9999982E-25
 -4.2750002E-03    1.0000006E-24
 -4.2400002E-03    1.0000005E-24
 -4.2050001E-03    9.9999972E-25
 -4.1700001E-03    9.9999963E-25
 -4.1350001E-03    1.0000002E-24
 -4.1000000E-03    1.0000005E-24
 -4.0650000E-03    1.0000001E-24
 -4.0300000E-03    9.9999972E-25
 -3.9949999E-03    9.9999972E-25
 -3.9599999E-03    1.0000000E-24
 -3.9249999E-03    1.0000004E-24
 -3.8900001E-03    1.0000001E-24
 -3.8550000E-03    9.9999982E-25
 -3.8200000E-03    1.0000002E-24
 -3.7849999E-03    1.0000004E-24
 -3.7499999E-03    1.0000000E-24
 -3.7150001E-03    9.9999943E-25
 -3.6800001E-03    1.0000000E-24
 -3.6450000E-03    1.0000005E-24
 -3.6100000E-03    1.0000001E-24
 -3.5750000E-03    9.9999972E-25
 -3.5399999E-03    1.0000001E-24
 -3.5049999E-03    1.0000005E-24
 -3.4700001E-03    1.0000004E-24
 -3.4350001E-03    9.9999972E-25
 -3.4000000E-03    9.9999972E-25
 -3.3650000E-03    1.0000000E-24
 -3.3300000E-03    9.9999972E-25
 -3.2949999E-03    1.0000001E-24
 -3.2599999E-03    1.0000006E-24
 -3.2250001E-03    1.0000001E-24
 -3.1900001E-03    9.9999972E-25
 -3.1550000E-03    1.0000003E-24
 -3.1200000E-03    1.0000003E-24
 -3.0850000E-03    9.9999953E-25
 -3.0499999E-03    9.9999982E-25
 -3.0149999E-03    1.0000012E-24
 -2.9800001E-03    1.0000008E-24
 -2.9450001E-03    9.9999903E-25
 -2.9100000E-03    9.9999943E-25
 -2.8750000E-03    1.0000003E-24
 -2.8400000E-03    9.9999972E-25
 -2.8049999E-03    9.9999943E-25
 -2.7699999E-03    1.0000007E-24
 -2.7350001E-03    1.0000007E-24
 -2.7000001E-03    9.9999982E-25
 -2.6650000E-03    1.0000004E-24
 -2.6300000E-03    1.0000004E-24
 -2.5950000E-03    9.9999923E-25
 -2.5599999E-03    9.9999953E-25
 -2.5249999E-03    1.0000011E-24
 -2.4900001E-03    1.0000005E-24
 -2.4550001E-03    9.9999923E-25
 -2.4200000E-03    1.0000002E-24
 -2.3850000E-03    1.0000014E-24
 -2.3500000E-03    9.9999953E-25
 -2.3149999E-03    9.9999795E-25
 -2.2799999E-03    1.0000009E-24
 -2.2450001E-03    1.0000025E-24
 -2.2100001E-03    9.9999775E-25
 -2.1750000E-03    9.9999903E-25
 -2.1400000E-03    1.0000079E-24
 -2.1050000E-03    9.9999351E-25
 -2.0699999E-03    9.9998385E-25
 -2.0349999E-03    1.0000402E-24
 -2.0000001E-03    1.0000059E-24
 -1.9650001E-03    9.9986059E-25
 -1.9300000E-03    1.0001263E-24
 -1.8950000E-03    1.0003177E-24
 -1.8600000E-03    9.9929734E-25
 -1.8250000E-03    9.9969365E-25
 -1.7900000E-03    1.0023758E-24
 -1.7550000E-03    9.9877719E-25
 -1.7199999E-03    9.9431361E-25
 -1.6850000E-03    1.0081903E-24
 -1.6500000E-03    1.0085722E-24
 -1.6150000E-03    9.7153664E-25
 -1.5800000E-03    1.0007469E-24
 -1.5450000E-03    1.0704444E-24
 -1.5100000E-03    9.4323911E-25
 -1.4750001E-03    8.7661054E-25
 -1.4400000E-03    1.2273637E-24
 -1.4050000E-03    1.1044921E-24
 -1.3700000E-03    4.1120945E-25
 -1.3350000E-03    1.2314269E-24
 -1.3000000E-03    2.0919378E-24
 -1.2650000E-03   -3.6013475E-25
 -1.2300001E-03   -2.2923886E-25
 -1.1950000E-03    4.8311096E-24
 -1.1600000E-03    5.1256814E-25
 -1.1250000E-03   -6.4985316E-24
 -1.0900000E-03    7.8581606E-24
 -1.0550000E-03    1.0745143E-23
 -1.0200000E-03   -2.0047570E-23
 -9.8500005E-04   -1.9404048E-24
 -9.5000002E-04    4.3528348E-23
 -9.1499998E-04   -2.5785954E-23
 -8.8000001E-04   -5.7363542E-23
 -8.4499997E-04    9.5304293E-23
 -8.1000000E-04    3.2416535E-23
 -7.7500002E-04   -1.9494276E-22
 -7.3999999E-04    1.0623365E-22
 -7.0500001E-04    2.7067279E-22
 -6.6999998E-04   -4.2601124E-22
 -6.3500000E-04   -1.4056086E-22
 -6.0000003E-04    9.4141535E-22
 -5.6499999E-04   -5.0678989E-22
 -5.3000002E-04   -1.4266766E-21
 -4.9499999E-04    2.0868965E-21
 -4.6000001E-04    1.2321865E-21
 -4.2500001E-04   -4.8415083E-21
 -3.9000000E-04    9.2754341E-22
 -3.5500000E-04    8.3561010E-21
 -3.1999999E-04   -6.8915963E-21
 -2.8499999E-04   -1.0759713E-20
 -2.5000001E-04    1.8538450E-20
 -2.1499999E-04    7.9269841E-21
 -1.8000000E-04   -3.6467563E-20
 -1.4500000E-04    7.0411149E-21
 -1.1000000E-04    5.7916550E-20
 -7.5000004E-05   -4.3364343E-20
 -3.9999999E-05   -7.3967983E-20
 -4.9999999E-06    1.1069832E-19
  2.9999999E-05    6.6655422E-20
  6.5000000E-05   -2.1522542E-19
  9.9999997E-05   -6.5551269E-21
  1.3499999E-04    3.5357424E-19
  1.7000000E-04   -1.4812295E-19
  2.0500000E-04   -5.0430002E-19
  2.3999999E-04    4.4996604E-19
  2.7500000E-04    6.1700389E-19
  3.1000000E-04   -9.5662962E-19
  3.4500001E-04   -5.9914537E-19
  3.8000001E-04    1.7188851E-18
  4.1499999E-04    3.0164940E-19
  4.4999999E-04   -2.7595428E-18
  4.8500000E-04    4.9429377E-19
  5.2000000E-04    4.0406363E-18
  5.5499998E-04   -2.0843640E-18
  5.9000001E-04   -5.4167687E-18
  6.2499999E-04    4.8349695E-18
  6.6000002E-04    6.5740498E-18
  6.9500000E-04   -9.1542234E-18
  7.3000003E-04   -6.9546045E-18
  7.6500000E-04    1.5429223E-17
  7.9999998E-04    5.6677270E-18
  8.3500001E-04   -2.3918157E-17
  8.6999999E-04   -1.3910127E-18
  9.0500002E-04    3.4587667E-17
  9.4000000E-04   -7.7286893E-18
  9.7499997E-04   -4.6891542E-17
  1.0100000E-03    2.4150679E-17
  1.0450000E-03    5.9495806E-17
  1.0800000E-03   -5.0953747E-17
  1.1150000E-03   -6.9968071E-17
  1.1500000E-03    9.1736626E-17
  1.1849999E-03    7.4457743E-17
  1.2200000E-03   -1.5035524E-16
  1.2550000E-03   -6.7390199E-17
  1.2900000E-03    2.3045842E-16
  1.3250000E-03    4.1184105E-17
  1.3600000E-03   -3.3479536E-16
  1.3950000E-03    1.4011634E-17
  1.4299999E-03    4.6426209E-16
  1.4650000E-03   -1.1055040E-16
  1.5000000E-03   -6.1660843E-16
  1.5350000E-03    2.6344059E-16
  1.5700000E-03    7.8466019E-16
  1.6050000E-03   -4.9033827E-16
  1.6400000E-03   -9.5387408E-16
  1.6749999E-03    8.1131600E-16
  1.7100000E-03    1.0991205E-15
  1.7450000E-03   -1.2484758E-15
  1.7800000E-03   -1.1808197E-15
  1.8150000E-03    1.8255845E-15
  1.8500000E-03    1.1409559E-15
  1.8850000E-03   -2.5678816E-15
  1.9200000E-03   -8.9990697E-16
  1.9550000E-03    3.5017602E-15
  1.9900000E-03    3.5511817E-16
  2.0250001E-03   -4.6533343E-15
  2.0600001E-03    6.1788227E-16
  2.0949999E-03    6.0445055E-15
  2.1299999E-03   -2.1626413E-15
  2.1650000E-03   -7.6857406E-15
  2.2000000E-03    4.4385386E-15
  2.2350000E-03    9.5665239E-15
  2.2700001E-03   -7.6182906E-15
  2.3050001E-03   -1.1646999E-14
  2.3399999E-03    1.1885695E-14
  2.3749999E-03    1.3856056E-14
  2.4100000E-03   -1.7427371E-14
  2.4450000E-03   -1.6099941E-14
  2.4800000E-03    2.4404371E-14
  2.5150001E-03    1.8275525E-14
  2.5500001E-03   -3.2885282E-14
  2.5849999E-03   -2.0264452E-14
  2.6199999E-03    4.2732439E-14
  2.6550000E-03    2.1871056E-14
  2.6900000E-03   -5.3459441E-14
  2.7250000E-03   -2.2668052E-14
  2.7600001E-03    6.4108082E-14
  2.7950001E-03    2.1736121E-14
  2.8299999E-03   -7.3215624E-14
  2.8649999E-03   -1.7312434E-14
  2.9000000E-03    7.8958711E-14
  2.9350000E-03    6.4075379E-15
  2.9700000E-03   -7.9555876E-14
  3.0050001E-03    1.5493568E-14
  3.0400001E-03    7.3972173E-14
  3.0749999E-03   -5.4486787E-14
  3.1099999E-03   -6.2914633E-14
  3.1450000E-03    1.1786337E-13
  3.1800000E-03    5.0041148E-14
  3.2150000E-03   -2.1303071E-13
  3.2500001E-03   -4.3177840E-14
  3.2850001E-03    3.4545912E-13
  3.3199999E-03    5.5115170E-14
  3.3549999E-03   -5.1547406E-13
  3.3900000E-03   -1.0332184E-13
  3.4250000E-03    7.1391433E-13
  3.4600000E-03    2.0761816E-13
  3.4950001E-03   -9.1708737E-13
  3.5300001E-03   -3.8445511E-13
  3.5649999E-03    1.0825542E-12
  3.5999999E-03    6.3662259E-13
  3.6350000E-03   -1.1490192E-12
  3.6700000E-03   -9.3919338E-13
  3.7050000E-03    1.0442452E-12
  3.7400001E-03    1.2255949E-12
  3.7750001E-03   -7.0304532E-13
  3.8099999E-03   -1.3794808E-12
  3.8449999E-03    9.4671693E-14
  3.8800000E-03    1.2384228E-12
  3.9149998E-03    7.4338685E-13
  3.9499998E-03   -6.1659917E-13
  3.9849998E-03   -1.6733284E-12
  4.0199999E-03   -6.4771561E-13
  4.0549999E-03    2.4429968E-12
  4.0899999E-03    2.6246032E-12
  4.1250000E-03   -2.7068261E-12
  4.1600000E-03   -5.2233135E-12
  4.1950000E-03    2.0863957E-12
  4.2300001E-03    8.1416211E-12
  4.2650001E-03   -2.6485641E-13
  4.3000001E-03   -1.0848777E-11
  4.3350002E-03   -2.8909288E-12
  4.3700002E-03    1.2622678E-11
  4.4049998E-03    7.1976539E-12
  4.4399998E-03   -1.2664532E-11
  4.4749998E-03   -1.2055220E-11
  4.5099999E-03    1.0286934E-11
  4.5449999E-03    1.6423625E-11
  4.5799999E-03   -5.1430171E-12
  4.6150000E-03   -1.8898643E-11
  4.6500000E-03   -2.5315138E-12
  4.6850001E-03    1.7914890E-11
  4.7200001E-03    1.1709501E-11
  4.7550001E-03   -1.2113550E-11
  4.7900002E-03   -2.0511334E-11
  4.8250002E-03    8.3032946E-13
  4.8600002E-03    2.6408315E-11
  4.8949998E-03    1.5449229E-11
  4.9299998E-03   -2.6692749E-11
  4.9649999E-03   -3.4803393E-11
  4.9999999E-03    1.9160337E-11
  5.0349999E-03    5.3862040E-11
  5.0700000E-03   -2.9539101E-12
  5.1050000E-03   -6.8258461E-11
  5.1400000E-03   -2.0665603E-11
  5.1750001E-03    7.3650946E-11
  5.2100001E-03    4.8076376E-11
  5.2450001E-03   -6.6996901E-11
  5.2800002E-03   -7.3794575E-11
  5.3150002E-03    4.7569903E-11
  5.3500002E-03    9.1472420E-11
  5.3849998E-03   -1.7539276E-11
  5.4199998E-03   -9.5182230E-11
  5.4549999E-03   -1.7931672E-11
  5.4899999E-03    8.0942288E-11
  5.5249999E-03    5.1376858E-11
  5.5600000E-03   -4.8050227E-11
  5.5950000E-03   -7.4556389E-11
  5.6300000E-03   -4.3574741E-13
  5.6650001E-03    8.0174693E-11
  5.7000001E-03    5.8056969E-11
  5.7350001E-03   -6.3262805E-11
  5.7700002E-03   -1.1566816E-10
  5.8050002E-03    2.2403454E-11
  5.8400002E-03    1.6252480E-10
  5.8749998E-03    3.9095300E-11
  5.9099998E-03   -1.8815315E-10
  5.9449999E-03   -1.1260114E-10
  5.9799999E-03    1.8502035E-10
  6.0149999E-03    1.8490384E-10
  6.0500000E-03   -1.5132949E-10
  6.0850000E-03   -2.4075208E-10
  6.1200000E-03    9.2674819E-11
  6.1550001E-03    2.6659036E-10
  6.1900001E-03   -2.1706767E-11
  6.2250001E-03   -2.5425842E-10
  6.2600002E-03   -4.3947419E-11
  6.2950002E-03    2.0422344E-10
  6.3299998E-03    8.5844894E-11
  6.3649998E-03   -1.2722877E-10
  6.3999998E-03   -9.1266515E-11
  6.4349999E-03    4.1101823E-11
  6.4699999E-03    5.7992236E-11
  6.5049999E-03    3.6620141E-11
  6.5400000E-03    7.3863823E-12
  6.5750000E-03   -9.3339676E-11
  6.6100000E-03   -9.3749994E-11
  6.6450001E-03    1.2183188E-10
  6.6800001E-03    1.8747735E-10
  6.7150001E-03   -1.2155027E-10
  6.7500002E-03   -2.7643668E-10
  6.7850002E-03    9.7208096E-11
  6.8199998E-03    3.5421685E-10
  6.8549998E-03   -5.1194167E-11
  6.8899998E-03   -4.1402215E-10
  6.9249999E-03   -1.5835395E-11
  6.9599999E-03    4.4182696E-10
  6.9949999E-03    9.2838799E-11
  7.0300000E-03   -4.2629680E-10
  7.0650000E-03   -1.5818451E-10
  7.1000000E-03    3.6899456E-10
  7.1350001E-03    1.9052379E-10
  7.1700001E-03   -2.8065691E-10
  7.2050001E-03   -1.6827884E-10
  7.2400002E-03    1.8770627E-10
  7.2750002E-03    7.9030914E-11
  7.3099998E-03   -1.3784070E-10
  7.3449998E-03    4.9807689E-11
  7.3799998E-03    1.6245041E-10
  7.4149999E-03   -1.6089373E-10
  7.4499999E-03   -2.4399641E-10
  7.4850000E-03    2.1812731E-10
  7.5200000E-03    3.4686354E-10
  7.5550000E-03   -2.0962958E-10
  7.5900001E-03   -4.3538045E-10
  7.6250001E-03    1.3283730E-10
  7.6600001E-03    4.5344431E-10
  7.6950002E-03   -3.8084480E-11
  7.7300002E-03   -3.7895773E-10
  7.7650002E-03    1.1970269E-11
  7.7999998E-03    2.8403779E-10
  7.8349998E-03   -6.1917339E-11
  7.8699999E-03   -2.4044167E-10
  7.9049999E-03    1.2304055E-10
  7.9399999E-03    2.3732941E-10
  7.9750000E-03   -1.7236898E-10
  8.0100000E-03   -2.6786123E-10
  8.0450000E-03    1.8936008E-10
  8.0800001E-03    3.2702688E-10
  8.1150001E-03   -1.2069305E-10
  8.1500001E-03   -3.2052300E-10
  8.1850002E-03    2.4068674E-11
  8.2200002E-03    1.9802683E-10
  8.2550002E-03   -4.4021488E-11
  8.2900003E-03   -9.1336806E-11
  8.3250003E-03    1.6607438E-10
  8.3600003E-03    9.8273452E-11
  8.3950004E-03   -2.8600283E-10
  8.4300004E-03   -1.9451615E-10
  8.4650004E-03    3.7528294E-10
  8.5000005E-03    3.9409212E-10
  8.5349996E-03   -3.5402331E-10
  8.5699996E-03   -6.6035616E-10
  8.6049996E-03    9.8384946E-11
  8.6399997E-03    7.5326972E-10
  8.6749997E-03    2.3046243E-10
  8.7099997E-03   -6.0789013E-10
  8.7449998E-03   -4.0630790E-10
  8.7799998E-03    3.9781076E-10
  8.8149998E-03    4.2203685E-10
  8.8499999E-03   -2.2354500E-10
  8.8849999E-03   -3.1245956E-10
  8.9199999E-03    1.2491141E-10
  8.9550000E-03    4.2521653E-11
  8.9900000E-03   -3.1900735E-10
  9.0250000E-03    8.9056013E-11
  9.0600001E-03    6.7019362E-10
  9.0950001E-03    8.0063893E-11
  9.1300001E-03   -8.6104879E-10
  9.1650002E-03   -3.5949357E-10
  9.2000002E-03    8.2145807E-10
  9.2350002E-03    5.3715710E-10
  9.2700003E-03   -7.0499157E-10
  9.3050003E-03   -6.6691191E-10
  9.3400003E-03    4.0103418E-10
  9.3750004E-03    4.6122212E-10
  9.4100004E-03   -2.4178370E-10
  9.4450004E-03   -2.4472641E-11
  9.4799995E-03    4.5201862E-10
  9.5149996E-03   -2.9252697E-10
  9.5499996E-03   -8.7791191E-10
  9.5849996E-03    3.2027717E-10
  9.6199997E-03    1.2111607E-09
  9.6549997E-03   -2.6082292E-10
  9.6899997E-03   -1.5504055E-09
  9.7249998E-03   -7.6132892E-11
  9.7599998E-03    1.5437954E-09
  9.7949998E-03    3.7048969E-10
  9.8299999E-03   -1.2056087E-09
  9.8649999E-03   -2.6402774E-10
  9.8999999E-03    1.0281273E-09
  9.9350000E-03    7.9590050E-11
  9.9700000E-03   -9.1298069E-10
  1.0005000E-02    2.2139368E-10
  1.0040000E-02    9.4876385E-10
  1.0075000E-02   -5.4797061E-10
  1.0110000E-02   -1.1200608E-09
  1.0145000E-02    9.0843516E-10
  1.0180000E-02    1.7194974E-09
  1.0215000E-02   -4.1904233E-10
  1.0250000E-02   -1.2730341E-09
  1.0285000E-02    8.8554764E-10
  1.0320000E-02    1.6970754E-09
  1.0355000E-02   -4.0200124E-10
  1.0390000E-02   -1.1425652E-09
  1.0425000E-02    8.3708651E-10
  1.0460000E-02    1.6108964E-09
  1.0495000E-02    9.9980538E-11
  1.0530000E-02   -1.3630098E-10
  1.0565000E-02    1.6588688E-09
  1.0600000E-02    2.0166551E-09
  1.0635000E-02    3.4835992E-10
  1.0670000E-02    2.0132637E-10
  1.0705000E-02    1.9595536E-09
  1.0740000E-02    1.9631969E-09
  1.0775000E-02    4.1749729E-10
  1.0810000E-02    1.2044352E-09
  1.0845000E-02    3.3072949E-09
  1.0880000E-02    2.7960048E-09
  1.0915000E-02    1.5233643E-09
  1.0950000E-02    3.0681939E-09
  1.0985000E-02    4.8325353E-09
  1.1020000E-02    3.6668226E-09
  1.1055000E-02    2.3921853E-09
  1.1090000E-02    3.9447192E-09
  1.1125000E-02    6.0412462E-09
  1.1160000E-02    5.7132756E-09
  1.1195000E-02    4.3867443E-09
  1.1230000E-02    5.4444822E-09
  1.1265000E-02    8.2443465E-09
  1.1300000E-02    8.9734806E-09
  1.1335000E-02    7.9372686E-09
  1.1370000E-02    8.7058245E-09
  1.1405000E-02    1.0526525E-08
  1.1440000E-02    1.0927256E-08
  1.1475000E-02    1.1548047E-08
  1.1510000E-02    1.3095541E-08
  1.1545000E-02    1.3228419E-08
  1.1580000E-02    1.3183252E-08
  1.1615000E-02    1.5714596E-08
  1.1650000E-02    1.8699682E-08
  1.1685000E-02    1.9522293E-08
  1.1720000E-02    1.9556765E-08
  1.1755000E-02    2.0733426E-08
  1.1790000E-02    2.3362144E-08
  1.1825000E-02    2.5875220E-08
  1.1860000E-02    2.6005832E-08
  1.1895000E-02    2.5484791E-08
  1.1930000E-02    2.8030227E-08
  1.1965000E-02    3.1979166E-08
  1.2000000E-02    3.3878109E-08
  1.2035000E-02    3.5084639E-08
  1.2070000E-02    3.7385465E-08
  1.2105000E-02    3.9926856E-08
  1.2140000E-02    4.2432411E-08
  1.2175000E-02    4.4422855E-08
  1.2210000E-02    4.5263512E-08
  1.2245000E-02    4.7015938E-08
  1.2280000E-02    5.0523973E-08
  1.2315000E-02    5.3032529E-08
  1.2350000E-02    5.4512608E-08
  1.2385000E-02    5.7647846E-08
  1.2420000E-02    6.1397188E-08
  1.2455000E-02    6.3583968E-08
  1.2490000E-02    6.5587990E-08
  1.2525000E-02    6.8435476E-08
  1.2560000E-02    7.0655311E-08
  1.2595000E-02    7.2282958E-08
  1.2630000E-02    7.4879182E-08
  1.2665000E-02    7.7878013E-08
  1.2700000E-02    7.9674010E-08
  1.2735000E-02    8.1069878E-08
  1.2770000E-02    8.3938154E-08
  1.2805000E-02    8.7678210E-08
  1.2840000E-02    9.0038732E-08
  1.2875000E-02    9.0724477E-08
  1.2910000E-02    9.1919979E-08
  1.2945000E-02    9.4743008E-08
  1.2980000E-02    9.6787375E-08
  1.3015000E-02    9.6300994E-08
  1.3050000E-02    9.6549414E-08
  1.3085000E-02    9.9498330E-08
  1.3120000E-02    1.0076774E-07
  1.3155000E-02    9.9372762E-08
  1.3190000E-02    1.0087877E-07
  1.3225000E-02    1.0416129E-07
  1.3260000E-02    1.0262256E-07
  1.3295000E-02    9.9140387E-08
  1.3330000E-02    9.9945751E-08
  1.3365000E-02    1.0123276E-07
  1.3400000E-02    9.8390842E-08
  1.3435000E-02    9.5242946E-08
  1.3470000E-02    9.4982568E-08
  1.3505000E-02    9.4981445E-08
  1.3540000E-02    9.2472803E-08
  1.3575000E-02    8.8277055E-08
  1.3610000E-02    8.5560110E-08
  1.3645000E-02    8.4249280E-08
  1.3680000E-02    7.9844547E-08
  1.3715000E-02    7.3087342E-08
  1.3750000E-02    6.9958496E-08
  1.3785000E-02    6.8340881E-08
  1.3820000E-02    6.2268420E-08
  1.3855000E-02    5.5793649E-08
  1.3890000E-02    5.3196359E-08
  1.3925000E-02    4.8401088E-08
  1.3960000E-02    3.9385977E-08
  1.3995000E-02    3.3326337E-08
  1.4030000E-02    3.0343166E-08
  1.4065000E-02    2.3318394E-08
  1.4100000E-02    1.2831658E-08
  1.4135000E-02    5.2602793E-09
  1.4170000E-02    1.1590955E-09
  1.4205000E-02   -4.5699657E-09
  1.4240000E-02   -1.4197687E-08
  1.4275000E-02   -2.3062448E-08
  1.4310000E-02   -2.7585708E-08
  1.4345000E-02   -3.3420609E-08
  1.4380000E-02   -4.4144596E-08
  1.4415000E-02   -5.2456556E-08
  1.4450000E-02   -5.7053100E-08
  1.4485000E-02   -6.6791429E-08
  1.4520000E-02   -7.9263792E-08
  1.4555000E-02   -8.4953072E-08
  1.4590000E-02   -8.8344649E-08
  1.4625000E-02   -9.6431137E-08
  1.4660000E-02   -1.0464341E-07
  1.4695000E-02   -1.1037471E-07
  1.4730000E-02   -1.1644275E-07
  1.4765000E-02   -1.2258801E-07
  1.4800000E-02   -1.2955253E-07
  1.4835000E-02   -1.3770224E-07
  1.4870000E-02   -1.4328685E-07
  1.4905000E-02   -1.4824818E-07
  1.4940000E-02   -1.5576533E-07
  1.4975000E-02   -1.5965132E-07
  1.5010000E-02   -1.5984304E-07
  1.5045000E-02   -1.6527420E-07
  1.5080000E-02   -1.7207613E-07
  1.5115000E-02   -1.7230825E-07
  1.5150000E-02   -1.7284918E-07
  1.5185000E-02   -1.7805742E-07
  1.5220000E-02   -1.8083126E-07
  1.5255000E-02   -1.8080675E-07
  1.5290000E-02   -1.8287088E-07
  1.5325000E-02   -1.8516751E-07
  1.5360000E-02   -1.8557289E-07
  1.5395000E-02   -1.8537862E-07
  1.5430000E-02   -1.8425909E-07
  1.5465000E-02   -1.8205466E-07
  1.5500000E-02   -1.8009862E-07
  1.5535000E-02   -1.7862425E-07
  1.5570000E-02   -1.7678174E-07
  1.5605000E-02   -1.7359052E-07
  1.5640000E-02   -1.6996178E-07
  1.5675001E-02   -1.6811489E-07
  1.5710000E-02   -1.6651747E-07
  1.5745001E-02   -1.6230877E-07
  1.5780000E-02   -1.5693048E-07
  1.5814999E-02   -1.5197708E-07
  1.5850000E-02   -1.4674825E-07
  1.5884999E-02   -1.4167954E-07
  1.5920000E-02   -1.3658132E-07
  1.5954999E-02   -1.3052420E-07
  1.5990000E-02   -1.2481067E-07
  1.6024999E-02   -1.1923849E-07
  1.6060000E-02   -1.1191035E-07
  1.6094999E-02   -1.0458301E-07
  1.6130000E-02   -9.8927551E-08
  1.6164999E-02   -9.2887163E-08
  1.6200000E-02   -8.5751900E-08
  1.6235000E-02   -7.8387821E-08
  1.6270000E-02   -7.0547571E-08
  1.6305000E-02   -6.2980384E-08
  1.6340001E-02   -5.6376440E-08
  1.6375000E-02   -4.9242882E-08
  1.6410001E-02   -4.0479950E-08
  1.6445000E-02   -3.0758017E-08
  1.6480001E-02   -2.2525120E-08
  1.6515000E-02   -1.7456244E-08
  1.6550001E-02   -1.1092899E-08
  1.6585000E-02    4.3363096E-10
  1.6620001E-02    1.0595738E-08
  1.6655000E-02    1.5001673E-08
  1.6690001E-02    2.1468127E-08
  1.6725000E-02    3.2609808E-08
  1.6759999E-02    4.0262069E-08
  1.6795000E-02    4.4748219E-08
  1.6829999E-02    5.3503118E-08
  1.6865000E-02    6.4111774E-08
  1.6899999E-02    7.1949216E-08
  1.6935000E-02    8.0574424E-08
  1.6969999E-02    9.0597275E-08
  1.7005000E-02    9.8539942E-08
  1.7039999E-02    1.0739605E-07
  1.7075000E-02    1.1867015E-07
  1.7109999E-02    1.2698199E-07
  1.7145000E-02    1.3371988E-07
  1.7180000E-02    1.4405040E-07
  1.7215000E-02    1.5393542E-07
  1.7250000E-02    1.6148473E-07
  1.7285001E-02    1.7199231E-07
  1.7320000E-02    1.8163780E-07
  1.7355001E-02    1.8436700E-07
  1.7390000E-02    1.8761438E-07
  1.7425001E-02    1.9574287E-07
  1.7460000E-02    1.9995987E-07
  1.7495001E-02    1.9729146E-07
  1.7530000E-02    1.9271251E-07
  1.7565001E-02    1.8499982E-07
  1.7600000E-02    1.7155224E-07
  1.7635001E-02    1.5549482E-07
  1.7670000E-02    1.3687439E-07
  1.7704999E-02    1.0931009E-07
  1.7740000E-02    6.9961771E-08
  1.7774999E-02    2.3249012E-08
  1.7810000E-02   -2.9137981E-08
  1.7844999E-02   -9.2777775E-08
  1.7880000E-02   -1.7161474E-07
  1.7914999E-02   -2.6736171E-07
  1.7950000E-02   -3.8517990E-07
  1.7984999E-02   -5.2558119E-07
  1.8020000E-02   -6.8601111E-07
  1.8054999E-02   -8.7715841E-07
  1.8090000E-02   -1.1112580E-06
  1.8124999E-02   -1.3855756E-06
  1.8160000E-02   -1.7034342E-06
  1.8195000E-02   -2.0814166E-06
  1.8230001E-02   -2.5260308E-06
  1.8265000E-02   -3.0413355E-06
  1.8300001E-02   -3.6467750E-06
  1.8335000E-02   -4.3599021E-06
  1.8370001E-02   -5.1902784E-06
  1.8405000E-02   -6.1566161E-06
  1.8440001E-02   -7.2820494E-06
  1.8475000E-02   -8.5853799E-06
  1.8510001E-02   -1.0092032E-05
  1.8545000E-02   -1.1836782E-05
  1.8580001E-02   -1.3854838E-05
  1.8615000E-02   -1.6179953E-05
  1.8650001E-02   -1.8850447E-05
  1.8685000E-02   -2.1916432E-05
  1.8719999E-02   -2.5434738E-05
  1.8755000E-02   -2.9460665E-05
  1.8789999E-02   -3.4058201E-05
  1.8825000E-02   -3.9302366E-05
  1.8859999E-02   -4.5267137E-05
  1.8895000E-02   -5.2039519E-05
  1.8929999E-02   -5.9728267E-05
  1.8965000E-02   -6.8436639E-05
  1.8999999E-02   -7.8268611E-05
  1.9035000E-02   -8.9359266E-05
  1.9069999E-02   -1.0185163E-04
  1.9105000E-02   -1.1588154E-04
  1.9140000E-02   -1.3161605E-04
  1.9175000E-02   -1.4924657E-04
  1.9210000E-02   -1.6894957E-04
  1.9245001E-02   -1.9091419E-04
  1.9280000E-02   -2.1536941E-04
  1.9315001E-02   -2.4254969E-04
  1.9350000E-02   -2.7268790E-04
  1.9385001E-02   -3.0604636E-04
  1.9420000E-02   -3.4290500E-04
  1.9455001E-02   -3.8354070E-04
  1.9490000E-02   -4.2825096E-04
  1.9525001E-02   -4.7736097E-04
  1.9560000E-02   -5.3119345E-04
  1.9595001E-02   -5.9006939E-04
  1.9630000E-02   -6.5433473E-04
  1.9664999E-02   -7.2434859E-04
  1.9700000E-02   -8.0046087E-04
  1.9734999E-02   -8.8303187E-04
  1.9770000E-02   -9.7243412E-04
  1.9804999E-02   -1.0690175E-03
  1.9840000E-02   -1.1731205E-03
  1.9874999E-02   -1.2851022E-03
  1.9910000E-02   -1.4053056E-03
  1.9944999E-02   -1.5340266E-03
  1.9980000E-02   -1.6715591E-03
  2.0014999E-02   -1.8181920E-03
  2.0050000E-02   -1.9741543E-03
  2.0085000E-02   -2.1396361E-03
  2.0120000E-02   -2.3148237E-03
  2.0155000E-02   -2.4998393E-03
  2.0190001E-02   -2.6947232E-03
  2.0225000E-02   -2.8994889E-03
  2.0260001E-02   -3.1141036E-03
  2.0295000E-02   -3.3384324E-03
  2.0330001E-02   -3.5722773E-03
  2.0365000E-02   -3.8153841E-03
  2.0400001E-02   -4.0673953E-03
  2.0435000E-02   -4.3278546E-03
  2.0470001E-02   -4.5962417E-03
  2.0505000E-02   -4.8719360E-03
  2.0540001E-02   -5.1542036E-03
  2.0575000E-02   -5.4422277E-03
  2.0609999E-02   -5.7350975E-03
  2.0645000E-02   -6.0317754E-03
  2.0679999E-02   -6.3311323E-03
  2.0715000E-02   -6.6319602E-03
  2.0749999E-02   -6.9329441E-03
  2.0785000E-02   -7.2326609E-03
  2.0819999E-02   -7.5296150E-03
  2.0855000E-02   -7.8222323E-03
  2.0889999E-02   -8.1088534E-03
  2.0925000E-02   -8.3877500E-03
  2.0959999E-02   -8.6571518E-03
  2.0995000E-02   -8.9152381E-03
  2.1029999E-02   -9.1601424E-03
  2.1065000E-02   -9.3899705E-03
  2.1100000E-02   -9.6028373E-03
  2.1135001E-02   -9.7968588E-03
  2.1170000E-02   -9.9701518E-03
  2.1205001E-02   -1.0120892E-02
  2.1240000E-02   -1.0247310E-02
  2.1275001E-02   -1.0347682E-02
  2.1310000E-02   -1.0420367E-02
  2.1345001E-02   -1.0463835E-02
  2.1380000E-02   -1.0476683E-02
  2.1415001E-02   -1.0457626E-02
  2.1450000E-02   -1.0405531E-02
  2.1485001E-02   -1.0319432E-02
  2.1520000E-02   -1.0198520E-02
  2.1555001E-02   -1.0042179E-02
  2.1590000E-02   -9.8500038E-03
  2.1624999E-02   -9.6217981E-03
  2.1660000E-02   -9.3575679E-03
  2.1694999E-02   -9.0575339E-03
  2.1730000E-02   -8.7221656E-03
  2.1764999E-02   -8.3521511E-03
  2.1800000E-02   -7.9483949E-03
  2.1834999E-02   -7.5120404E-03
  2.1870000E-02   -7.0444606E-03
  2.1904999E-02   -6.5472256E-03
  2.1940000E-02   -6.0221199E-03
  2.1974999E-02   -5.4711360E-03
  2.2010000E-02   -4.8964312E-03
  2.2045000E-02   -4.3003457E-03
  2.2080000E-02   -3.6853976E-03
  2.2115000E-02   -3.0542053E-03
  2.2150001E-02   -2.4095075E-03
  2.2185000E-02   -1.7541805E-03
  2.2220001E-02   -1.0911635E-03
  2.2255000E-02   -4.2341970E-04
  2.2290001E-02    2.4602804E-04
  2.2325000E-02    9.1412698E-04
  2.2360001E-02    1.5778617E-03
  2.2395000E-02    2.2342615E-03
  2.2430001E-02    2.8803931E-03
  2.2465000E-02    3.5133909E-03
  2.2500001E-02    4.1305036E-03
  2.2535000E-02    4.7291131E-03
  2.2569999E-02    5.3067217E-03
  2.2605000E-02    5.8609783E-03
  2.2639999E-02    6.3897232E-03
  2.2675000E-02    6.8909815E-03
  2.2709999E-02    7.3629487E-03
  2.2745000E-02    7.8040333E-03
  2.2779999E-02    8.2128933E-03
  2.2815000E-02    8.5883895E-03
  2.2849999E-02    8.9295739E-03
  2.2885000E-02    9.2357490E-03
  2.2919999E-02    9.5064715E-03
  2.2955000E-02    9.7414879E-03
  2.2990000E-02    9.9407388E-03
  2.3025000E-02    1.0104426E-02
  2.3060000E-02    1.0232966E-02
  2.3095001E-02    1.0326920E-02
  2.3130000E-02    1.0387036E-02
  2.3165001E-02    1.0414291E-02
  2.3200000E-02    1.0409788E-02
  2.3235001E-02    1.0374747E-02
  2.3270000E-02    1.0310567E-02
  2.3305001E-02    1.0218750E-02
  2.3340000E-02    1.0100866E-02
  2.3375001E-02    9.9585894E-03
  2.3410000E-02    9.7936830E-03
  2.3445001E-02    9.6079400E-03
  2.3480000E-02    9.4031785E-03
  2.3514999E-02    9.1812555E-03
  2.3550000E-02    8.9440336E-03
  2.3584999E-02    8.6933570E-03
  2.3620000E-02    8.4310556E-03
  2.3654999E-02    8.1589287E-03
  2.3690000E-02    7.8787282E-03
  2.3724999E-02    7.5921472E-03
  2.3760000E-02    7.3008193E-03
  2.3794999E-02    7.0063118E-03
  2.3830000E-02    6.7101093E-03
  2.3864999E-02    6.4135990E-03
  2.3900000E-02    6.1180880E-03
  2.3934999E-02    5.8248066E-03
  2.3970000E-02    5.5348808E-03
  2.4005000E-02    5.2493089E-03
  2.4040001E-02    4.9690134E-03
  2.4075000E-02    4.6948581E-03
  2.4110001E-02    4.4275778E-03
  2.4145000E-02    4.1677854E-03
  2.4180001E-02    3.9160284E-03
  2.4215000E-02    3.6727828E-03
  2.4250001E-02    3.4384166E-03
  2.4285000E-02    3.2132112E-03
  2.4320001E-02    2.9973851E-03
  2.4355000E-02    2.7910958E-03
  2.4390001E-02    2.5944214E-03
  2.4425000E-02    2.4073697E-03
  2.4460001E-02    2.2299020E-03
  2.4495000E-02    2.0619296E-03
  2.4529999E-02    1.9033111E-03
  2.4565000E-02    1.7538726E-03
  2.4599999E-02    1.6134079E-03
  2.4635000E-02    1.4816634E-03
  2.4669999E-02    1.3583598E-03
  2.4705000E-02    1.2432182E-03
  2.4739999E-02    1.1359357E-03
  2.4775000E-02    1.0361718E-03
  2.4809999E-02    9.4358670E-04
  2.4845000E-02    8.5785752E-04
  2.4879999E-02    7.7864085E-04
  2.4915000E-02    7.0556917E-04
  2.4950000E-02    6.3830602E-04
  2.4985000E-02    5.7653262E-04
  2.5020000E-02    5.1989878E-04
  2.5055001E-02    4.6806573E-04
  2.5090000E-02    4.2073932E-04
  2.5125001E-02    3.7760870E-04
  2.5160000E-02    3.3835456E-04
  2.5195001E-02    3.0271406E-04
  2.5230000E-02    2.7043253E-04
  2.5265001E-02    2.4122110E-04
  2.5300000E-02    2.1482907E-04
  2.5335001E-02    1.9105480E-04
  2.5370000E-02    1.6967805E-04
  2.5405001E-02    1.5047131E-04
  2.5440000E-02    1.3324445E-04
  2.5474999E-02    1.1783008E-04
  2.5510000E-02    1.0406121E-04
  2.5544999E-02    9.1777532E-05
  2.5580000E-02    8.0837621E-05
  2.5614999E-02    7.1115086E-05
  2.5650000E-02    6.2482170E-05
  2.5684999E-02    5.4821234E-05
  2.5720000E-02    4.8040041E-05
  2.5754999E-02    4.2047493E-05
  2.5790000E-02    3.6749738E-05
  2.5824999E-02    3.2075248E-05
  2.5860000E-02    2.7956192E-05
  2.5895000E-02    2.4316483E-05
  2.5930000E-02    2.1106283E-05
  2.5965000E-02    1.8290273E-05
  2.6000001E-02    1.5811269E-05
  2.6035000E-02    1.3619978E-05
  2.6070001E-02    1.1695437E-05
  2.6105000E-02    1.0004942E-05
  2.6140001E-02    8.5027241E-06
  2.6175000E-02    7.1707004E-06
  2.6210001E-02    6.0046323E-06
  2.6245000E-02    4.9768319E-06
  2.6280001E-02    4.0579912E-06
  2.6315000E-02    3.2445828E-06
  2.6350001E-02    2.5284976E-06
  2.6385000E-02    1.8847709E-06
  2.6419999E-02    1.3083414E-06
  2.6455000E-02    8.0410035E-07
  2.6489999E-02    3.5251429E-07
  2.6525000E-02   -5.7231535E-08
  2.6559999E-02   -4.1155684E-07
  2.6595000E-02   -7.2019844E-07
  2.6629999E-02   -1.0026630E-06
  2.6665000E-02   -1.2479037E-06
  2.6699999E-02   -1.4563709E-06
  2.6735000E-02   -1.6509229E-06
  2.6769999E-02   -1.8208514E-06
  2.6805000E-02   -1.9486336E-06
  2.6839999E-02   -2.0593520E-06
  2.6875000E-02   -2.1673600E-06
  2.6910000E-02   -2.2471779E-06
  2.6945001E-02   -2.2912184E-06
  2.6980000E-02   -2.3212517E-06