 -4.8000002E-03    1.0000000E-24
 -4.7650002E-03    1.0000002E-24
 -4.7300002E-03    1.0000001E-24
 -4.6950001E-03    1.0000000E-24
 -4.6600001E-03    1.0000003E-24
 -4.6250001E-03    1.0000002E-24
 -4.5900000E-03    9.9999992E-25
 -4.5550000E-03    1.0000001E-24
 -4.5200000E-03    1.0000000E-24
 -4.4849999E-03    9.9999992E-25
 -4.4499999E-03    1.0000002E-24
 -4.4149999E-03    1.0000002E-24
 -4.3799998E-03    9.9999963E-25
 -4.3449998E-03    9.9999972E-25
 -4.3100002E-03    1.0000005E-24
 -4.2750002E-03    1.0000002E-24
 -4.2400002E-03    9.9999992E-25
 -4.2050001E-03    1.0000004E-24
 -4.1700001E-03    1.0000006E-24
 -4.1350001E-03    9.9999953E-25
 -4.1000000E-03    9.9999933E-25
 -4.0650000E-03    1.0000004E-24
 -4.0300000E-03    1.0000002E-24
 -3.9949999E-03    9.9999953E-25
 -3.9599999E-03    1.0000003E-24
 -3.9249999E-03    1.0000007E-24
 -3.8900001E-03    9.9999963E-25
 -3.8550000E-03    9.9999953E-25
 -3.8200000E-03    1.0000005E-24
 -3.7849999E-03    1.0000002E-24
 -3.7499999E-03    9.9999972E-25
 -3.7150001E-03    1.0000005E-24
 -3.6800001E-03    1.0000007E-24
 -3.6450000E-03    9.9999963E-25
 -3.6100000E-03    9.9999953E-25
 -3.5750000E-03    1.0000000E-24
 -3.5399999E-03    9.9999992E-25
 -3.5049999E-03    9.9999992E-25
 -3.4700001E-03    1.0000006E-24
 -3.4350001E-03    1.0000005E-24
 -3.4000000E-03    1.0000001E-24
 -3.3650000E-03    9.9999982E-25
 -3.3300000E-03    1.0000000E-24
 -3.2949999E-03    9.9999982E-25
 -3.2599999E-03    9.9999982E-25
 -3.2250001E-03    1.0000001E-24
 -3.1900001E-03    1.0000000E-24
 -3.1550000E-03    1.0000001E-24
 -3.1200000E-03    1.0000004E-24
 -3.0850000E-03    1.0000004E-24
 -3.0499999E-03    9.9999972E-25
 -3.0149999E-03    9.9999992E-25
 -2.9800001E-03    1.0000006E-24
 -2.9450001E-03    1.0000000E-24
 -2.9100000E-03    9.9999972E-25
 -2.8750000E-03    1.0000003E-24
 -2.8400000E-03    1.0000001E-24
 -2.8049999E-03    9.9999982E-25
 -2.7699999E-03    1.0000004E-24
 -2.7350001E-03    1.0000009E-24
 -2.7000001E-03    9.9999982E-25
 -2.6650000E-03    9.9999913E-25
 -2.6300000E-03    9.9999972E-25
 -2.5950000E-03    1.0000005E-24
 -2.5599999E-03    1.0000001E-24
 -2.5249999E-03    1.0000003E-24
 -2.4900001E-03    1.0000008E-24
 -2.4550001E-03    1.0000001E-24
 -2.4200000E-03    9.9999943E-25
 -2.3850000E-03    1.0000002E-24
 -2.3500000E-03    1.0000002E-24
 -2.3149999E-03    9.9999933E-25
 -2.2799999E-03    9.9999933E-25
 -2.2450001E-03    1.0000002E-24
 -2.2100001E-03    1.0000005E-24
 -2.1750000E-03    9.9999982E-25
 -2.1400000E-03    1.0000000E-24
 -2.1050000E-03    1.0000004E-24
 -2.0699999E-03    1.0000001E-24
 -2.0349999E-03    1.0000001E-24
 -2.0000001E-03    1.0000000E-24
 -1.9650001E-03    9.9999992E-25
 -1.9300000E-03    1.0000006E-24
 -1.8950000E-03    1.0000007E-24
 -1.8600000E-03    9.9999972E-25
 -1.8250000E-03    9.9999972E-25
 -1.7900000E-03    1.0000007E-24
 -1.7550000E-03    9.9999982E-25
 -1.7199999E-03    9.9999903E-25
 -1.6850000E-03    1.0000005E-24
 -1.6500000E-03    1.0000013E-24
 -1.6150000E-03    9.9999923E-25
 -1.5800000E-03    9.9999884E-25
 -1.5450000E-03    1.0000007E-24
 -1.5100000E-03    1.0000004E-24
 -1.4750001E-03    9.9999923E-25
 -1.4400000E-03    1.0000002E-24
 -1.4050000E-03    1.0000007E-24
 -1.3700000E-03    9.9999963E-25
 -1.3350000E-03    1.0000001E-24
 -1.3000000E-03    1.0000007E-24
 -1.2650000E-03    9.9999943E-25
 -1.2300001E-03    9.9999963E-25
 -1.1950000E-03    1.0000010E-24
 -1.1600000E-03    9.9999953E-25
 -1.1250000E-03    9.9999864E-25
 -1.0900000E-03    1.0000032E-24
 -1.0550000E-03    9.9999992E-25
 -1.0200000E-03    9.9999785E-25
 -9.8500005E-04    1.0000077E-24
 -9.5000002E-04    9.9999637E-25
 -9.1499998E-04    9.9999805E-25
 -8.8000001E-04    1.0000226E-24
 -8.4499997E-04    9.9998552E-25
 -8.1000000E-04    9.9997803E-25
 -7.7500002E-04    1.0000165E-24
 -7.3999999E-04    1.0000490E-24
 -7.0500001E-04    9.9993149E-25
 -6.6999998E-04    9.9999351E-25
 -6.3500000E-04    1.0000590E-24
 -6.0000003E-04    9.9999341E-25
 -5.6499999E-04    9.9994036E-25
 -5.3000002E-04    1.0003140E-24
 -4.9499999E-04    9.9999844E-25
 -4.6000001E-04    9.9976060E-25
 -4.2500001E-04    1.0010056E-24
 -3.9000000E-04    1.0011953E-24
 -3.5500000E-04    9.9772504E-25
 -3.1999999E-04    9.9993218E-25
 -2.8499999E-04    1.0054315E-24
 -2.5000001E-04    9.9541861E-25
 -2.1499999E-04    9.9077005E-25
 -1.8000000E-04    1.0058286E-24
 -1.4500000E-04    1.0052054E-24
 -1.1000000E-04    1.0062667E-24
 -7.5000004E-05    9.8793124E-25
 -3.9999999E-05    1.0334331E-24
 -4.9999999E-06    1.0183894E-24
  2.9999999E-05    9.5532101E-25
  6.5000000E-05    1.0046069E-24
  9.9999997E-05    1.0478924E-24
  1.3499999E-04    9.7150350E-25
  1.7000000E-04    1.0221597E-24
  2.0500000E-04    1.0586566E-24
  2.3999999E-04    1.0341392E-24
  2.7500000E-04    1.1951428E-24
  3.1000000E-04    9.5487875E-25
  3.4500001E-04    1.1803821E-24
  3.8000001E-04    1.2313196E-24
  4.1499999E-04    1.1159142E-24
  4.4999999E-04    1.4594865E-24
  4.8500000E-04    1.0657062E-24
  5.2000000E-04    4.9243755E-25
  5.5499998E-04    6.5783136E-25
  5.9000001E-04    1.3152021E-24
  6.2499999E-04    6.0992965E-25
  6.6000002E-04    1.4878267E-24
  6.9500000E-04    1.0659417E-24
  7.3000003E-04    4.4063231E-25
  7.6500000E-04   -1.8973776E-25
  7.9999998E-04   -1.9406110E-24
  8.3500001E-04    3.5695913E-24
  8.6999999E-04    8.4374259E-24
  9.0500002E-04    1.1245085E-24
  9.4000000E-04    1.9027998E-24
  9.7499997E-04    8.6420028E-24
  1.0100000E-03   -2.1106960E-24
  1.0450000E-03   -1.0178070E-23
  1.0800000E-03    6.8000449E-24
  1.1150000E-03    1.3701070E-23
  1.1500000E-03   -2.0827685E-23
  1.1849999E-03   -1.2027609E-24
  1.2200000E-03    2.6220993E-23
  1.2550000E-03   -3.1910093E-23
  1.2900000E-03   -5.6069955E-23
  1.3250000E-03    1.0646245E-23
  1.3600000E-03    8.3723808E-23
  1.3950000E-03    1.2828234E-24
  1.4299999E-03   -9.2023092E-23
  1.4650000E-03   -3.2111965E-23
  1.5000000E-03    1.5107254E-22
  1.5350000E-03    9.3602796E-23
  1.5700000E-03   -2.2010189E-22
  1.6050000E-03   -2.4068704E-22
  1.6400000E-03    1.0879108E-22
  1.6749999E-03    4.6138028E-22
  1.7100000E-03    9.2249079E-23
  1.7450000E-03   -7.6626566E-22
  1.7800000E-03   -3.6845759E-22
  1.8150000E-03    8.7791005E-22
  1.8500000E-03    2.9433852E-22
  1.8850000E-03   -9.7997880E-22
  1.9200000E-03   -4.5408439E-22
  1.9550000E-03    1.0773045E-21
  1.9900000E-03    2.3010737E-21
  2.0250001E-03   -7.2702734E-22
  2.0600001E-03   -4.8171832E-21
  2.0949999E-03   -1.2674891E-21
  2.1299999E-03    5.9834013E-21
  2.1650000E-03    3.1208715E-21
  2.2000000E-03   -8.4692858E-21
  2.2350000E-03   -7.8229637E-21
  2.2700001E-03    9.6023471E-21
  2.3050001E-03    1.6102150E-20
  2.3399999E-03   -6.9046769E-21
  2.3749999E-03   -2.1219296E-20
  2.4100000E-03    5.2816439E-21
  2.4450000E-03    3.8556187E-20
  2.4800000E-03    8.1164513E-21
  2.5150001E-03   -5.4555618E-20
  2.5500001E-03   -2.9654619E-20
  2.5849999E-03    5.9605323E-20
  2.6199999E-03    4.8607501E-20
  2.6550000E-03   -6.7260421E-20
  2.6900000E-03   -1.0106744E-19
  2.7250000E-03    4.2763693E-20
  2.7600001E-03    1.4741171E-19
  2.7950001E-03    7.8736770E-21
  2.8299999E-03   -2.0825788E-19
  2.8649999E-03   -9.6547894E-20
  2.9000000E-03    2.6144747E-19
  2.9350000E-03    2.3988840E-19
  2.9700000E-03   -2.3990319E-19
  3.0050001E-03   -4.0932456E-19
  3.0400001E-03    1.3458677E-19
  3.0749999E-03    6.0487572E-19
  3.1099999E-03    1.0852209E-19
  3.1450000E-03   -8.3401938E-19
  3.1800000E-03   -6.0286707E-19
  3.2150000E-03    9.0057666E-19
  3.2500001E-03    1.2405058E-18
  3.2850001E-03   -8.0078600E-19
  3.3199999E-03   -2.0990180E-18
  3.3549999E-03    2.8192849E-19
  3.3900000E-03    2.9829448E-18
  3.4250000E-03    8.3641753E-19
  3.4600000E-03   -3.7455892E-18
  3.4950001E-03   -2.8441079E-18
  3.5300001E-03    4.0227845E-18
  3.5649999E-03    5.5412230E-18
  3.5999999E-03   -3.0964725E-18
  3.6350000E-03   -8.7882423E-18
  3.6700000E-03    5.8012782E-19
  3.7050000E-03    1.1980488E-17
  3.7400001E-03    4.3858994E-18
  3.7750001E-03   -1.4122680E-17
  3.8099999E-03   -1.2086522E-17
  3.8449999E-03    1.3449838E-17
  3.8800000E-03    2.2491398E-17
  3.9149998E-03   -7.4170647E-18
  3.9499998E-03   -3.3244118E-17
  3.9849998E-03   -4.5395461E-18
  4.0199999E-03    4.3363494E-17
  4.0549999E-03    2.6118306E-17
  4.0899999E-03   -4.7217706E-17
  4.1250000E-03   -5.6042128E-17
  4.1600000E-03    3.9548676E-17
  4.1950000E-03    9.3074230E-17
  4.2300001E-03   -1.4061488E-17
  4.2650001E-03   -1.3119431E-16
  4.3000001E-03   -3.6415631E-17
  4.3350002E-03    1.5793840E-16
  4.3700002E-03    1.0839898E-16
  4.4049998E-03   -1.6600199E-16
  4.4399998E-03   -2.0984554E-16
  4.4749998E-03    1.2774197E-16
  4.5099999E-03    3.1752351E-16
  4.5449999E-03   -3.3267351E-17
  4.5799999E-03   -4.1740473E-16
  4.6150000E-03   -1.2927979E-16
  4.6500000E-03    4.7553298E-16
  4.6850001E-03    3.5957475E-16
  4.7200001E-03   -4.5107051E-16
  4.7550001E-03   -6.4286460E-16
  4.7900002E-03    2.9474248E-16
  4.8250002E-03    9.2785990E-16
  4.8600002E-03    2.3513365E-17
  4.8949998E-03   -1.1481196E-15
  4.9299998E-03   -5.1919848E-16
  4.9649999E-03    1.2155326E-15
  4.9999999E-03    1.1606865E-15
  5.0349999E-03   -1.0323022E-15
  5.0700000E-03   -1.8612916E-15
  5.1050000E-03    5.2099943E-16
  5.1400000E-03    2.4866522E-15
  5.1750001E-03    3.5500781E-16
  5.2100001E-03   -2.8677389E-15
  5.2450001E-03   -1.5666374E-15
  5.2800002E-03    2.8189360E-15
  5.3150002E-03    2.9968570E-15
  5.3500002E-03   -2.1161240E-15
  5.3849998E-03   -4.3580031E-15
  5.4199998E-03    7.1723568E-16
  5.4549999E-03    5.3291760E-15
  5.4899999E-03    1.3347177E-15
  5.5249999E-03   -5.5505485E-15
  5.5600000E-03   -3.8371308E-15
  5.5950000E-03    4.6750222E-15
  5.6300000E-03    6.3282149E-15
  5.6650001E-03   -2.5925641E-15
  5.7000001E-03   -8.2916513E-15
  5.7350001E-03   -6.7321655E-16
  5.7700002E-03    9.0428628E-15
  5.8050002E-03    4.6924461E-15
  5.8400002E-03   -8.0740620E-15
  5.8749998E-03   -8.7908967E-15
  5.9099998E-03    5.0741267E-15
  5.9449999E-03    1.1909875E-14
  5.9799999E-03   -4.1969929E-16
  6.0149999E-03   -1.3219407E-14
  6.0500000E-03   -5.2728580E-15
  6.0850000E-03    1.1878328E-14
  6.1200000E-03    1.0730772E-14
  6.1550001E-03   -7.7614510E-15
  6.1900001E-03   -1.4578789E-14
  6.2250001E-03    1.2874352E-15
  6.2600002E-03    1.5355123E-14
  6.2950002E-03    6.0921735E-15
  6.3299998E-03   -1.2338834E-14
  6.3649998E-03   -1.2700243E-14
  6.3999998E-03    5.3415295E-15
  6.4349999E-03    1.6294856E-14
  6.4699999E-03    4.4759525E-15
  6.5049999E-03   -1.5255319E-14
  6.5400000E-03   -1.5103399E-14
  6.5750000E-03    8.6341897E-15
  6.6100000E-03    2.3760997E-14
  6.6450001E-03    3.1748677E-15
  6.6800001E-03   -2.7537360E-14
  6.7150001E-03   -1.8051831E-14
  6.7500002E-03    2.4753362E-14
  6.7850002E-03    3.3246026E-14
  6.8199998E-03   -1.4716720E-14
  6.8549998E-03   -4.5520987E-14
  6.8899998E-03   -1.6706849E-15
  6.9249999E-03    5.1841422E-14
  6.9599999E-03    2.2059311E-14
  6.9949999E-03   -5.0298446E-14
  7.0300000E-03   -4.3087482E-14
  7.0650000E-03    4.0884654E-14
  7.1000000E-03    6.1771592E-14
  7.1350001E-03   -2.5710081E-14
  7.1700001E-03   -7.7587744E-14
  7.2050001E-03    5.8198016E-15
  7.2400002E-03    9.1117008E-14
  7.2750002E-03    1.9327362E-14
  7.3099998E-03   -1.0242756E-13
  7.3449998E-03   -5.1413799E-14
  7.3799998E-03    1.1071086E-13
  7.4149999E-03    9.3199083E-14
  7.4499999E-03   -1.1402461E-13
  7.4850000E-03   -1.4997503E-13
  7.5200000E-03    1.0476289E-13
  7.5550000E-03    2.2581766E-13
  7.5900001E-03   -6.7357314E-14
  7.6250001E-03   -3.1605949E-13
  7.6600001E-03   -1.7670147E-14
  7.6950002E-03    4.0121069E-13
  7.7300002E-03    1.6290372E-13
  7.7650002E-03   -4.5070143E-13
  7.7999998E-03   -3.6766112E-13
  7.8349998E-03    4.2911914E-13
  7.8699999E-03    6.1661115E-13
  7.9049999E-03   -2.9821929E-13
  7.9399999E-03   -8.7397374E-13
  7.9750000E-03    2.3057700E-14
  8.0100000E-03    1.0734733E-12
  8.0450000E-03    4.0552498E-13
  8.0800001E-03   -1.1261517E-12
  8.1150001E-03   -9.4845150E-13
  8.1500001E-03    9.4822511E-13
  8.1850002E-03    1.5149204E-12
  8.2200002E-03   -4.9452272E-13
  8.2550002E-03   -1.9857440E-12
  8.2900003E-03   -2.3220989E-13
  8.3250003E-03    2.2309368E-12
  8.3600003E-03    1.1786282E-12
  8.3950004E-03   -2.1173135E-12
  8.4300004E-03   -2.2186955E-12
  8.4650004E-03    1.5448037E-12
  8.5000005E-03    3.1457454E-12
  8.5349996E-03   -5.1538325E-13
  8.5699996E-03   -3.7347300E-12
  8.6049996E-03   -8.4938892E-13
  8.6399997E-03    3.8215694E-12
  8.6749997E-03    2.3627324E-12
  8.7099997E-03   -3.3137607E-12
  8.7449998E-03   -3.8058276E-12
  8.7799998E-03    2.1732718E-12
  8.8149998E-03    4.8986349E-12
  8.8499999E-03   -4.8733082E-13
  8.8849999E-03   -5.3569406E-12
  8.9199999E-03   -1.4834273E-12
  8.9550000E-03    5.0386305E-12
  8.9900000E-03    3.4224767E-12
  9.0250000E-03   -3.9590722E-12
  9.0600001E-03   -5.0770291E-12
  9.0950001E-03    2.1611061E-12
  9.1300001E-03    6.1620231E-12
  9.1650002E-03    2.2594379E-13
  9.2000002E-03   -6.3310607E-12
  9.2350002E-03   -2.7988980E-12
  9.2700003E-03    5.4695831E-12
  9.3050003E-03    5.0632133E-12
  9.3400003E-03   -3.8115674E-12
  9.3750004E-03   -6.8021574E-12
  9.4100004E-03    1.5634476E-12
  9.4450004E-03    7.9182381E-12
  9.4799995E-03    1.2246827E-12
  9.5149996E-03   -8.0702511E-12
  9.5499996E-03   -4.1810821E-12
  9.5849996E-03    7.0566300E-12
  9.6199997E-03    6.6289691E-12
  9.6549997E-03   -5.3045246E-12
  9.6899997E-03   -8.3787014E-12
  9.7249998E-03    3.2523938E-12
  9.7599998E-03    9.7158254E-12
  9.7949998E-03   -6.7052548E-13
  9.8299999E-03   -1.0348231E-11
  9.8649999E-03   -2.4643581E-12
  9.8999999E-03    9.5850472E-12
  9.9350000E-03    5.2489714E-12
  9.9700000E-03   -7.6489232E-12
  1.0005000E-02   -7.0295983E-12
  1.0040000E-02    5.3667717E-12
  1.0075000E-02    8.2207375E-12
  1.0110000E-02   -2.5852790E-12
  1.0145000E-02   -8.7321383E-12
  1.0180000E-02   -1.0753651E-12
  1.0215000E-02    7.4265594E-12
  1.0250000E-02    4.5251407E-12
  1.0285000E-02   -4.1082675E-12
  1.0320000E-02   -6.2498774E-12
  1.0355000E-02    2.0354459E-13
  1.0390000E-02    6.4354542E-12
  1.0425000E-02    3.6416942E-12
  1.0460000E-02   -5.5188887E-12
  1.0495000E-02   -7.6270613E-12
  1.0530000E-02    2.8287999E-12
  1.0565000E-02    1.0823832E-11
  1.0600000E-02    1.7232279E-12
  1.0635000E-02   -1.1648522E-11
  1.0670000E-02   -6.4154342E-12
  1.0705000E-02    1.0344626E-11
  1.0740000E-02    1.0286170E-11
  1.0775000E-02   -7.3686838E-12
  1.0810000E-02   -1.2717278E-11
  1.0845000E-02    2.9796617E-12
  1.0880000E-02    1.2434572E-11
  1.0915000E-02    1.1181543E-12
  1.0950000E-02   -9.3757909E-12
  1.0985000E-02   -2.5282727E-12
  1.1020000E-02    6.5754442E-12
  1.1055000E-02    3.0039246E-12
  1.1090000E-02   -3.9592977E-12
  1.1125000E-02   -3.6983303E-12
  1.1160000E-02   -8.2641684E-13
  1.1195000E-02    1.3008939E-12
  1.1230000E-02    5.4145221E-12
  1.1265000E-02    5.5902167E-12
  1.1300000E-02   -3.8296050E-12
  1.1335000E-02   -9.3585287E-12
  1.1370000E-02    5.7962446E-13
  1.1405000E-02    8.5182209E-12
  1.1440000E-02   -2.3010617E-12
  1.1475000E-02   -1.1192043E-11
  1.1510000E-02    3.8094940E-12
  1.1545000E-02    1.8540280E-11
  1.1580000E-02    3.2876659E-12
  1.1615000E-02   -1.7938257E-11
  1.1650000E-02   -8.5923178E-12
  1.1685000E-02    1.1269929E-11
  1.1720000E-02    3.8635501E-12
  1.1755000E-02   -1.2295897E-11
  1.1790000E-02    1.1504059E-13
  1.1825000E-02    2.0538116E-11
  1.1860000E-02    7.7692791E-12
  1.1895000E-02   -1.8734490E-11
  1.1930000E-02   -1.2627096E-11
  1.1965000E-02    1.2451755E-11
  1.2000000E-02    8.6061340E-12
  1.2035000E-02   -1.5590564E-11
  1.2070000E-02   -1.0778841E-11
  1.2105000E-02    2.0266296E-11
  1.2140000E-02    2.5530685E-11
  1.2175000E-02   -5.8339293E-12
  1.2210000E-02   -2.8417407E-11
  1.2245000E-02   -1.4419602E-11
  1.2280000E-02    1.3653306E-11
  1.2315000E-02    2.1863159E-11
  1.2350000E-02    2.7524829E-12
  1.2385000E-02   -1.9043083E-11
  1.2420000E-02   -1.1352523E-11
  1.2455000E-02    2.0103591E-11
  1.2490000E-02    2.6505348E-11
  1.2525000E-02   -1.2686856E-11
  1.2560000E-02   -4.2130511E-11
  1.2595000E-02   -8.2432915E-12
  1.2630000E-02    4.3995640E-11
  1.2665000E-02    3.0839546E-11
  1.2700000E-02   -3.0191884E-11
  1.2735000E-02   -4.0199340E-11
  1.2770000E-02    1.7559291E-11
  1.2805000E-02    4.6709012E-11
  1.2840000E-02   -1.4108091E-12
  1.2875000E-02   -4.7816993E-11
  1.2910000E-02   -1.9335339E-11
  1.2945000E-02    3.5894329E-11
  1.2980000E-02    3.4805922E-11
  1.3015000E-02   -1.3033890E-11
  1.3050000E-02   -3.3863891E-11
  1.3085000E-02   -2.1015900E-12
  1.3120000E-02    3.0845659E-11
  1.3155000E-02    1.3505221E-11
  1.3190000E-02   -2.9478184E-11
  1.3225000E-02   -3.0575535E-11
  1.3260000E-02    1.5469561E-11
  1.3295000E-02    4.2057510E-11
  1.3330000E-02    1.4875651E-11
  1.3365000E-02   -2.4897388E-11
  1.3400000E-02   -2.8630699E-11
  1.3435000E-02   -8.2823830E-13
  1.3470000E-02    1.4687637E-11
  1.3505000E-02   -1.8695076E-13
  1.3540000E-02   -8.9933798E-12
  1.3575000E-02    1.0122628E-11
  1.3610000E-02    2.2328318E-11
  1.3645000E-02    7.3334767E-12
  1.3680000E-02   -1.4723923E-11
  1.3715000E-02   -3.2990513E-11
  1.3750000E-02   -2.8405523E-11
  1.3785000E-02    1.9577973E-11
  1.3820000E-02    5.1777915E-11
  1.3855000E-02    5.0687228E-12
  1.3890000E-02   -4.4550322E-11
  1.3925000E-02   -5.4106394E-12
  1.3960000E-02    4.6446205E-11
  1.3995000E-02   -7.7077196E-13
  1.4030000E-02   -8.0006259E-11
  1.4065000E-02   -3.9406808E-11
  1.4100000E-02    8.9487140E-11
  1.4135000E-02    9.5974964E-11
  1.4170000E-02   -6.1828327E-11
  1.4205000E-02   -1.3308152E-10
  1.4240000E-02    7.7560233E-12
  1.4275000E-02    1.1693416E-10
  1.4310000E-02    2.1757046E-11
  1.4345000E-02   -7.8526532E-11
  1.4380000E-02   -2.2544043E-11
  1.4415000E-02    4.1736014E-11
  1.4450000E-02    5.0490835E-12
  1.4485000E-02   -2.7128107E-11
  1.4520000E-02   -1.0257721E-11
  1.4555000E-02   -1.4534140E-11
  1.4590000E-02   -1.7791031E-11
  1.4625000E-02    3.7110814E-11
  1.4660000E-02    7.3969920E-11
  1.4695000E-02   -1.8839711E-12
  1.4730000E-02   -1.1104924E-10
  1.4765000E-02   -7.7493685E-11
  1.4800000E-02    8.0882148E-11
  1.4835000E-02    1.0687127E-10
  1.4870000E-02   -5.6247538E-11
  1.4905000E-02   -9.8755809E-11
  1.4940000E-02    5.3512941E-11
  1.4975000E-02    6.3996870E-11
  1.5010000E-02   -9.0744467E-11
  1.5045000E-02   -7.6468609E-11
  1.5080000E-02    7.4890920E-11
  1.5115000E-02    1.0144274E-10
  1.5150000E-02    3.3680919E-11
  1.5185000E-02   -3.7102516E-11
  1.5220000E-02   -1.0217746E-10
  1.5255000E-02   -7.1315426E-11
  1.5290000E-02    1.1738010E-11
  1.5325000E-02    2.0422870E-11
  1.5360000E-02    4.1601556E-11
  1.5395000E-02    7.0157921E-11
  1.5430000E-02   -4.6191054E-12
  1.5465000E-02   -4.5546908E-12
  1.5500000E-02    7.2531668E-11
  1.5535000E-02   -7.7179714E-11
  1.5570000E-02   -2.1259043E-10
  1.5605000E-02    2.0544491E-11
  1.5640000E-02    1.8959656E-10
  1.5675001E-02    1.4218180E-11
  1.5710000E-02   -8.5816049E-11
  1.5745001E-02    5.9550091E-12
  1.5780000E-02    7.7560326E-11
  1.5814999E-02    8.0032703E-11
  1.5850000E-02   -9.5536128E-11
  1.5884999E-02   -2.3796778E-10
  1.5920000E-02    7.5155958E-11
  1.5954999E-02    3.3862771E-10
  1.5990000E-02   -8.8206152E-12
  1.6024999E-02   -2.8034708E-10
  1.6060000E-02   -5.8220692E-11
  1.6094999E-02    8.1667367E-11
  1.6130000E-02    6.3720675E-11
  1.6164999E-02    8.4809340E-11
  1.6200000E-02   -4.9632971E-11
  1.6235000E-02   -7.6358933E-11
  1.6270000E-02    1.6722938E-10
  1.6305000E-02    1.0256178E-10
  1.6340001E-02   -1.6509505E-10
  1.6375000E-02   -9.1990721E-11
  1.6410001E-02   -3.9105720E-12
  1.6445000E-02   -1.0949083E-11
  1.6480001E-02    1.7174048E-10
  1.6515000E-02    8.4080312E-11
  1.6550001E-02   -2.2978246E-10
  1.6585000E-02   -3.4187393E-12
  1.6620001E-02    2.6840599E-10
  1.6655000E-02   -4.4310285E-11
  1.6690001E-02   -1.9313037E-10
  1.6725000E-02    3.6581727E-11
  1.6759999E-02    9.5832862E-11
  1.6795000E-02    1.1489026E-10
  1.6829999E-02    3.7968850E-11
  1.6865000E-02   -2.8844832E-10
  1.6899999E-02   -1.9020686E-10
  1.6935000E-02    2.1492758E-10
  1.6969999E-02    1.1367399E-10
  1.7005000E-02   -7.0545271E-12
  1.7039999E-02    2.2785709E-10
  1.7075000E-02    1.2476538E-10
  1.7109999E-02   -1.4317909E-10
  1.7145000E-02   -1.3343880E-10
  1.7180000E-02   -2.1257056E-10
  1.7215000E-02   -1.5313333E-10
  1.7250000E-02    2.1646364E-10
  1.7285001E-02    1.4182874E-10
  1.7320000E-02   -1.5316436E-10
  1.7355001E-02    2.6206703E-11
  1.7390000E-02    1.8654865E-10
  1.7425001E-02    1.4433206E-10
  1.7460000E-02    1.4335383E-10
  1.7495001E-02   -2.2650458E-10
  1.7530000E-02   -5.1925569E-10
  1.7565001E-02    1.9835770E-11
  1.7600000E-02    4.7070775E-10
  1.7635001E-02    1.9988310E-10
  1.7670000E-02   -1.3990709E-10
  1.7704999E-02   -3.2984412E-10
  1.7740000E-02   -1.1217546E-10
  1.7774999E-02    4.8160353E-10
  1.7810000E-02    2.1992716E-10
  1.7844999E-02   -5.1092425E-10
  1.7880000E-02   -1.1216781E-10
  1.7914999E-02    3.6131784E-10
  1.7950000E-02   -1.7831094E-10
  1.7984999E-02   -2.6160285E-10
  1.8020000E-02    2.5458116E-10
  1.8054999E-02    2.3683758E-10
  1.8090000E-02    1.0896410E-10
  1.8124999E-02   -5.8307768E-11
  1.8160000E-02   -4.5845067E-10
  1.8195000E-02   -1.6486616E-10
  1.8230001E-02    2.0870740E-10
  1.8265000E-02   -1.6266624E-10
  1.8300001E-02    2.1009212E-10
  1.8335000E-02    8.2831086E-10
  1.8370001E-02   -1.1520634E-10
  1.8405000E-02   -6.3455813E-10
  1.8440001E-02    2.6017125E-10
  1.8475000E-02   -2.7597461E-11
  1.8510001E-02   -8.5264856E-10
  1.8545000E-02   -1.5905668E-10
  1.8580001E-02    2.8977115E-10
  1.8615000E-02   -7.4481345E-11
  1.8650001E-02    3.4239503E-10
  1.8685000E-02    6.7322831E-10
  1.8719999E-02    3.8090764E-10
  1.8755000E-02    2.3601551E-10
  1.8789999E-02   -5.9516675E-10
  1.8825000E-02   -1.2479251E-09
  1.8859999E-02   -2.0085811E-11
  1.8895000E-02    6.9193129E-10
  1.8929999E-02   -1.9932918E-10
  1.8965000E-02   -5.4602798E-11
  1.8999999E-02    5.4122101E-10
  1.9035000E-02    3.6904656E-11
  1.9069999E-02    7.2125896E-11
  1.9105000E-02    2.8307384E-10
  1.9140000E-02   -4.6125095E-10
  1.9175000E-02   -3.5783926E-10
  1.9210000E-02    1.8741632E-10
  1.9245001E-02   -3.8562931E-10
  1.9280000E-02   -2.9660527E-10
  1.9315001E-02    3.7795073E-10
  1.9350000E-02    5.7838030E-11
  1.9385001E-02    3.4593636E-10
  1.9420000E-02    7.0478240E-10
  1.9455001E-02   -6.5407435E-10
  1.9490000E-02   -6.6224654E-10
  1.9525001E-02    8.6690555E-10
  1.9560000E-02    2.7204825E-10
  1.9595001E-02   -4.8013216E-10
  1.9630000E-02    6.0793356E-11
  1.9664999E-02   -6.9953715E-10
  1.9700000E-02   -6.9293132E-10
  1.9734999E-02    1.2195819E-09
  1.9770000E-02    5.0595744E-10
  1.9804999E-02   -9.3030761E-10
  1.9840000E-02    4.1380352E-10
  1.9874999E-02    3.8106554E-10
  1.9910000E-02   -7.3950357E-10
  1.9944999E-02    7.2221512E-10
  1.9980000E-02    3.8094419E-10
  2.0014999E-02   -1.5378099E-09
  2.0050000E-02    3.1504271E-10
  2.0085000E-02    1.4930702E-09
  2.0120000E-02   -7.3826656E-10
  2.0155000E-02   -2.2634596E-10
  2.0190001E-02    8.9631919E-10
  2.0225000E-02   -1.0760199E-09
  2.0260001E-02   -6.1877375E-10
  2.0295000E-02    1.4042145E-09
  2.0330001E-02    4.4601895E-11
  2.0365000E-02   -4.3356641E-10
  2.0400001E-02    1.1355222E-10
  2.0435000E-02   -6.3554184E-10
  2.0470001E-02   -6.7672978E-10
  2.0505000E-02    4.4329013E-10
  2.0540001E-02   -9.5313368E-11
  2.0575000E-02    8.0085140E-11
  2.0609999E-02    1.2722935E-10
  2.0645000E-02    7.9865663E-11
  2.0679999E-02    1.7080687E-09
  2.0715000E-02    1.6736189E-09
  2.0749999E-02   -2.3533848E-09
  2.0785000E-02   -2.2864135E-09
  2.0819999E-02    1.7104310E-09
  2.0855000E-02   -1.6237765E-10
  2.0889999E-02   -2.0099864E-09
  2.0925000E-02    1.0224603E-09
  2.0959999E-02    2.5199546E-11
  2.0995000E-02   -1.5454952E-09
  2.1029999E-02    1.5505738E-09
  2.1065000E-02    1.3994268E-10
  2.1100000E-02   -3.0915646E-09
  2.1135001E-02    6.0627786E-10
  2.1170000E-02    2.8815110E-09
  2.1205001E-02   -6.6745975E-10
  2.1240000E-02   -5.0914611E-10
  2.1275001E-02   -1.9242137E-10
  2.1310000E-02    9.2665836E-10
  2.1345001E-02    4.2082551E-09
  2.1380000E-02    1.5323216E-10
  2.1415001E-02   -4.0694967E-09
  2.1450000E-02   -5.3618282E-10
  2.1485001E-02    1.5766219E-09
  2.1520000E-02   -1.1493509E-09
  2.1555001E-02    1.4815057E-09
  2.1590000E-02    2.0138327E-09
  2.1624999E-02   -3.1486371E-09
  2.1660000E-02   -1.0110720E-09
  2.1694999E-02    4.3784114E-09
  2.1730000E-02   -9.8624897E-10
  2.1764999E-02   -5.1408477E-09
  2.1800000E-02    1.1693120E-09
  2.1834999E-02    1.9577189E-09
  2.1870000E-02   -3.7444132E-09
  2.1904999E-02   -2.5543684E-10
  2.1940000E-02    5.2790172E-09
  2.1974999E-02   -2.0949391E-09
  2.2010000E-02   -3.9504591E-09
  2.2045000E-02    6.7073205E-09
  2.2080000E-02    5.7778382E-09
  2.2115000E-02   -5.6389480E-09
  2.2150001E-02   -1.8400816E-09
  2.2185000E-02    5.3056559E-09
  2.2220001E-02   -1.4675837E-09
  2.2255000E-02   -4.0221999E-09
  2.2290001E-02    3.4698155E-09
  2.2325000E-02    2.8573020E-09
  2.2360001E-02   -2.6350930E-09
  2.2395000E-02   -1.4257006E-09
  2.2430001E-02    4.4954113E-10
  2.2465000E-02   -2.3380864E-09
  2.2500001E-02   -3.0641305E-09
  2.2535000E-02    2.1761590E-09
  2.2569999E-02    6.1938072E-09
  2.2605000E-02    8.7350482E-10
  2.2639999E-02   -2.6395925E-09
  2.2675000E-02    2.5670328E-09
  2.2709999E-02    3.6110714E-10
  2.2745000E-02   -6.3733006E-09
  2.2779999E-02    3.2438324E-10
  2.2815000E-02    5.1989728E-09
  2.2849999E-02   -4.0707735E-09
  2.2885000E-02   -3.2449472E-09
  2.2919999E-02    5.5842238E-09
  2.2955000E-02    3.0281752E-10
  2.2990000E-02   -3.1516589E-09
  2.3025000E-02    4.6740380E-09
  2.3060000E-02    2.1078315E-09
  2.3095001E-02   -4.3629580E-09
  2.3130000E-02    4.5669471E-10
  2.3165001E-02    1.5946072E-09
  2.3200000E-02   -1.5356669E-09
  2.3235001E-02    1.3708037E-09
  2.3270000E-02    2.0313429E-10
  2.3305001E-02   -3.6608376E-09
  2.3340000E-02    3.6852414E-09
  2.3375001E-02    5.4360072E-09
  2.3410000E-02   -5.3621831E-09
  2.3445001E-02   -2.6964808E-09
  2.3480000E-02    6.5887860E-09
  2.3514999E-02    2.6270408E-09
  2.3550000E-02   -2.8272873E-09
  2.3584999E-02   -1.3130653E-09
  2.3620000E-02   -1.2989722E-09
  2.3654999E-02   -1.4171543E-09
  2.3690000E-02    6.5671180E-10
  2.3724999E-02    1.4702527E-09
  2.3760000E-02   -6.2336504E-11
  2.3794999E-02   -2.1933719E-09
  2.3830000E-02   -2.6872795E-09
  2.3864999E-02   -7.4663459E-10
  2.3900000E-02    1.1341198E-09
  2.3934999E-02    1.0922938E-09
  2.3970000E-02    3.0921539E-09
  2.4005000E-02    4.2745891E-09
  2.4040001E-02   -2.1947455E-09
  2.4075000E-02   -3.8221932E-09
  2.4110001E-02    2.1209838E-09
  2.4145000E-02    1.4369519E-09
  2.4180001E-02   -1.4698717E-09
  2.4215000E-02    1.5646248E-09
  2.4250001E-02    7.7948142E-10
  2.4285000E-02   -3.0729821E-09
  2.4320001E-02    4.1926762E-10
  2.4355000E-02    2.0423874E-09
  2.4390001E-02   -2.8637197E-09
  2.4425000E-02   -1.6344274E-09
  2.4460001E-02    3.8620738E-09
  2.4495000E-02    1.8636321E-09
  2.4529999E-02   -1.3788376E-09
  2.4565000E-02    4.5514570E-10
  2.4599999E-02   -4.9814020E-10
  2.4635000E-02   -3.6821055E-09
  2.4669999E-02   -6.4000155E-10
  2.4705000E-02    2.2440472E-09
  2.4739999E-02   -8.7775232E-10
  2.4775000E-02   -1.3300115E-09
  2.4809999E-02    1.7291968E-09
  2.4845000E-02    1.0107207E-09
  2.4879999E-02    5.2127686E-10
  2.4915000E-02    1.9842321E-09
  2.4950000E-02   -8.4495061E-10
  2.4985000E-02   -2.6900784E-09
  2.5020000E-02    1.0643201E-09
  2.5055001E-02    1.1046687E-09
  2.5090000E-02   -2.3045015E-09
  2.5125001E-02   -1.9082542E-09
  2.5160000E-02   -2.9479972E-09
  2.5195001E-02   -4.5447823E-09
  2.5230000E-02    5.2973842E-10
  2.5265001E-02    3.3033782E-09
  2.5300000E-02   -2.1236500E-10
  2.5335001E-02    1.1663274E-09
  2.5370000E-02    3.9537982E-09
  2.5405001E-02    5.2472587E-10
  2.5440000E-02   -4.9353560E-10
  2.5474999E-02    1.9935078E-09
  2.5510000E-02    1.0694493E-09
  2.5544999E-02    1.3888970E-09
  2.5580000E-02    2.8119880E-09
  2.5614999E-02   -1.6600894E-09
  2.5650000E-02   -5.7368696E-09
  2.5684999E-02   -3.5849355E-09
  2.5720000E-02   -1.3787440E-09
  2.5754999E-02   -9.8479913E-10
  2.5790000E-02    3.0792496E-10
  2.5824999E-02    1.6996977E-09
  2.5860000E-02    2.1917224E-09
  2.5895000E-02    9.1252472E-10
  2.5930000E-02   -6.6157485E-10
  2.5965000E-02    6.9702222E-10
  2.6000001E-02    1.9973474E-09
  2.6035000E-02    1.1470989E-09
  2.6070001E-02    1.6469875E-09
  2.6105000E-02    9.7188990E-10
  2.6140001E-02   -2.7915033E-09
  2.6175000E-02   -3.3092129E-09
  2.6210001E-02   -1.2914417E-09
  2.6245000E-02   -1.2278791E-09
  2.6280001E-02    5.8019906E-10
  2.6315000E-02    2.6946787E-09
  2.6350001E-02   -2.0924840E-10
  2.6385000E-02   -1.8486556E-09
  2.6419999E-02    1.9236674E-09
  2.6455000E-02    3.1725198E-09
  2.6489999E-02   -2.7202920E-10
  2.6525000E-02   -1.2911197E-09
  2.6559999E-02    1.1911513E-09
  2.6595000E-02    8.9679680E-10
  2.6629999E-02   -2.0200062E-09
  2.6665000E-02   -2.9608502E-10
  2.6699999E-02    3.3010614E-09
  2.6735000E-02    4.9818849E-10
  2.6769999E-02   -2.4736382E-09
  2.6805000E-02   -3.4271105E-10
  2.6839999E-02   -1.9494739E-09
  2.6875000E-02   -4.7263917E-09
  2.6910000E-02    9.4033992E-10
  2.6945001E-02    5.6749130E-09
  2.6980000E-02    1.8439544E-09