 -4.8000002E-03    1.0000000E-24
 -4.7650002E-03    1.0000000E-24
 -4.7300002E-03    1.0000001E-24
 -4.6950001E-03    1.0000002E-24
 -4.6600001E-03    1.0000001E-24
 -4.6250001E-03    1.0000001E-24
 -4.5900000E-03    1.0000001E-24
 -4.5550000E-03    1.0000001E-24
 -4.5200000E-03    1.0000001E-24
 -4.4849999E-03    1.0000002E-24
 -4.4499999E-03    1.0000001E-24
 -4.4149999E-03    1.0000001E-24
 -4.3799998E-03    1.0000002E-24
 -4.3449998E-03    1.0000002E-24
 -4.3100002E-03    1.0000001E-24
 -4.2750002E-03    1.0000000E-24
 -4.2400002E-03    9.9999982E-25
 -4.2050001E-03    9.9999982E-25
 -4.1700001E-03    1.0000001E-24
 -4.1350001E-03    1.0000001E-24
 -4.1000000E-03    1.0000001E-24
 -4.0650000E-03    9.9999992E-25
 -4.0300000E-03    9.9999982E-25
 -3.9949999E-03    1.0000000E-24
 -3.9599999E-03    1.0000001E-24
 -3.9249999E-03    1.0000002E-24
 -3.8900001E-03    1.0000002E-24
 -3.8550000E-03    1.0000001E-24
 -3.8200000E-03    9.9999992E-25
 -3.7849999E-03    1.0000000E-24
 -3.7499999E-03    1.0000004E-24
 -3.7150001E-03    1.0000004E-24
 -3.6800001E-03    1.0000000E-24
 -3.6450000E-03    9.9999972E-25
 -3.6100000E-03    9.9999992E-25
 -3.5750000E-03    9.9999992E-25
 -3.5399999E-03    9.9999982E-25
 -3.5049999E-03    1.0000003E-24
 -3.4700001E-03    1.0000006E-24
 -3.4350001E-03    1.0000002E-24
 -3.4000000E-03    9.9999982E-25
 -3.3650000E-03    9.9999992E-25
 -3.3300000E-03    9.9999992E-25
 -3.2949999E-03    9.9999972E-25
 -3.2599999E-03    9.9999982E-25
 -3.2250001E-03    1.0000003E-24
 -3.1900001E-03    1.0000004E-24
 -3.1550000E-03    1.0000001E-24
 -3.1200000E-03    9.9999982E-25
 -3.0850000E-03    9.9999982E-25
 -3.0499999E-03    1.0000000E-24
 -3.0149999E-03    1.0000003E-24
 -2.9800001E-03    1.0000003E-24
 -2.9450001E-03    1.0000002E-24
 -2.9100000E-03    9.9999992E-25
 -2.8750000E-03    9.9999992E-25
 -2.8400000E-03    1.0000001E-24
 -2.8049999E-03    1.0000001E-24
 -2.7699999E-03    1.0000000E-24
 -2.7350001E-03    1.0000000E-24
 -2.7000001E-03    1.0000001E-24
 -2.6650000E-03    1.0000001E-24
 -2.6300000E-03    1.0000003E-24
 -2.5950000E-03    1.0000008E-24
 -2.5599999E-03    1.0000005E-24
 -2.5249999E-03    9.9999972E-25
 -2.4900001E-03    9.9999963E-25
 -2.4550001E-03    1.0000000E-24
 -2.4200000E-03    1.0000003E-24
 -2.3850000E-03    1.0000004E-24
 -2.3500000E-03    1.0000001E-24
 -2.3149999E-03    9.9999963E-25
 -2.2799999E-03    9.9999963E-25
 -2.2450001E-03    1.0000001E-24
 -2.2100001E-03    1.0000004E-24
 -2.1750000E-03    1.0000002E-24
 -2.1400000E-03    9.9999982E-25
 -2.1050000E-03    9.9999992E-25
 -2.0699999E-03    1.0000005E-24
 -2.0349999E-03    1.0000005E-24
 -2.0000001E-03    1.0000003E-24
 -1.9650001E-03    1.0000000E-24
 -1.9300000E-03    9.9999992E-25
 -1.8950000E-03    1.0000000E-24
 -1.8600000E-03    1.0000003E-24
 -1.8250000E-03    1.0000001E-24
 -1.7900000E-03    9.9999953E-25
 -1.7550000E-03    9.9999953E-25
 -1.7199999E-03    1.0000001E-24
 -1.6850000E-03    1.0000003E-24
 -1.6500000E-03    1.0000002E-24
 -1.6150000E-03    1.0000003E-24
 -1.5800000E-03    1.0000003E-24
 -1.5450000E-03    1.0000005E-24
 -1.5100000E-03    1.0000006E-24
 -1.4750001E-03    1.0000000E-24
 -1.4400000E-03    9.9999992E-25
 -1.4050000E-03    1.0000000E-24
 -1.3700000E-03    9.9999953E-25
 -1.3350000E-03    9.9999913E-25
 -1.3000000E-03    1.0000000E-24
 -1.2650000E-03    1.0000000E-24
 -1.2300001E-03    1.0000010E-24
 -1.1950000E-03    1.0000020E-24
 -1.1600000E-03    9.9999913E-25
 -1.1250000E-03    9.9999854E-25
 -1.0900000E-03    1.0000006E-24
 -1.0550000E-03    9.9999992E-25
 -1.0200000E-03    9.9999361E-25
 -9.8500005E-04    1.0000093E-24
 -9.5000002E-04    1.0000137E-24
 -9.1499998E-04    9.9997734E-25
 -8.8000001E-04    9.9998681E-25
 -8.4499997E-04    1.0000475E-24
 -8.1000000E-04    9.9996038E-25
 -7.7500002E-04    9.9986108E-25
 -7.3999999E-04    1.0001631E-24
 -7.0500001E-04    1.0001115E-24
 -6.6999998E-04    9.9956585E-25
 -6.3500000E-04    9.9998562E-25
 -6.0000003E-04    1.0004887E-24
 -5.6499999E-04    9.9899402E-25
 -5.3000002E-04    9.9834568E-25
 -4.9499999E-04    1.0004461E-24
 -4.6000001E-04    1.0000058E-24
 -4.2500001E-04    9.9767130E-25
 -3.9000000E-04    9.9951181E-25
 -3.5500000E-04    1.0001716E-24
 -3.1999999E-04    9.9911551E-25
 -2.8499999E-04    9.9221150E-25
 -2.5000001E-04    9.9346312E-25
 -2.1499999E-04    1.0019384E-24
 -1.8000000E-04    1.0030263E-24
 -1.4500000E-04    1.0097104E-24
 -1.1000000E-04    9.8946044E-25
 -7.5000004E-05    9.6755131E-25
 -3.9999999E-05    1.0250486E-24
 -4.9999999E-06    1.0291154E-24
  2.9999999E-05    9.4759027E-25
  6.5000000E-05    8.9125890E-25
  9.9999997E-05    9.9459327E-25
  1.3499999E-04    1.2093179E-24
  1.7000000E-04    8.4713712E-25
  2.0500000E-04    4.1299531E-25
  2.3999999E-04    1.2160617E-24
  2.7500000E-04    1.8145753E-24
  3.1000000E-04    7.2816703E-25
  3.4500001E-04    2.4057768E-25
  3.8000001E-04    1.9313362E-24
  4.1499999E-04    2.8278906E-24
  4.4999999E-04   -4.0660341E-25
  4.8500000E-04   -2.3484533E-24
  5.2000000E-04    2.9766233E-24
  5.5499998E-04    4.9613900E-24
  5.9000001E-04   -2.1350451E-24
  6.2499999E-04   -5.3199517E-24
  6.6000002E-04    4.1155903E-24
  6.9500000E-04    1.1705026E-23
  7.3000003E-04    3.1917003E-24
  7.6500000E-04   -1.6347658E-23
  7.9999998E-04   -9.3967241E-24
  8.3500001E-04    2.8688833E-23
  8.6999999E-04    3.4241060E-23
  9.0500002E-04   -2.2569146E-23
  9.4000000E-04   -3.3440025E-23
  9.7499997E-04    4.3502886E-23
  1.0100000E-03    7.3387705E-23
  1.0450000E-03   -4.1810284E-23
  1.0800000E-03   -1.1636666E-22
  1.1150000E-03    7.0740376E-23
  1.1500000E-03    2.2553614E-22
  1.1849999E-03   -9.3255097E-24
  1.2200000E-03   -3.3012625E-22
  1.2550000E-03   -3.7397794E-23
  1.2900000E-03    5.1725622E-22
  1.3250000E-03    1.7747250E-22
  1.3600000E-03   -6.6442611E-22
  1.3950000E-03   -2.5568436E-22
  1.4299999E-03    9.4177693E-22
  1.4650000E-03    6.3220706E-22
  1.5000000E-03   -1.1091470E-21
  1.5350000E-03   -1.1990508E-21
  1.5700000E-03    1.2680452E-21
  1.6050000E-03    2.0625932E-21
  1.6400000E-03   -1.5606594E-21
  1.6749999E-03   -3.4395721E-21
  1.7100000E-03    1.2983256E-21
  1.7450000E-03    4.8923569E-21
  1.7800000E-03   -8.9805652E-22
  1.8150000E-03   -7.8790335E-21
  1.8500000E-03   -1.9425186E-21
  1.8850000E-03    9.1809576E-21
  1.9200000E-03    3.6649780E-21
  1.9550000E-03   -1.3747417E-20
  1.9900000E-03   -9.4717819E-21
  2.0250001E-03    1.6658576E-20
  2.0600001E-03    1.7682805E-20
  2.0949999E-03   -1.9345362E-20
  2.1299999E-03   -3.0594900E-20
  2.1650000E-03    1.8381617E-20
  2.2000000E-03    4.6150788E-20
  2.2350000E-03   -1.4592235E-20
  2.2700001E-03   -6.7408273E-20
  2.3050001E-03    2.0965042E-21
  2.3399999E-03    9.2835508E-20
  2.3749999E-03    2.6630115E-20
  2.4100000E-03   -1.1631845E-19
  2.4450000E-03   -7.0931843E-20
  2.4800000E-03    1.3669933E-19
  2.5150001E-03    1.4403250E-19
  2.5500001E-03   -1.3893067E-19
  2.5849999E-03   -2.4726522E-19
  2.6199999E-03    1.0238761E-19
  2.6550000E-03    3.6669113E-19
  2.6900000E-03   -1.6326965E-20
  2.7250000E-03   -5.1204460E-19
  2.7600001E-03   -1.7384815E-19
  2.7950001E-03    6.2180025E-19
  2.8299999E-03    4.7510721E-19
  2.8649999E-03   -6.7587961E-19
  2.9000000E-03   -9.4953417E-19
  2.9350000E-03    5.4534420E-19
  2.9700000E-03    1.5270035E-18
  3.0050001E-03   -1.4838267E-19
  3.0400001E-03   -2.1909020E-18
  3.0749999E-03   -7.5024589E-19
  3.1099999E-03    2.7179550E-18
  3.1450000E-03    2.2768730E-18
  3.1800000E-03   -2.7620696E-18
  3.2150000E-03   -4.4507814E-18
  3.2500001E-03    1.9454064E-18
  3.2850001E-03    7.3248134E-18
  3.3199999E-03    5.4571638E-19
  3.3549999E-03   -1.0445341E-17
  3.3900000E-03   -5.4768224E-18
  3.4250000E-03    1.2910677E-17
  3.4600000E-03    1.3727790E-17
  3.4950001E-03   -1.2870255E-17
  3.5300001E-03   -2.5601261E-17
  3.5649999E-03    7.8454623E-18
  3.5999999E-03    4.0287666E-17
  3.6350000E-03    5.2473869E-18
  3.6700000E-03   -5.5813621E-17
  3.7050000E-03   -3.0160633E-17
  3.7400001E-03    6.7527214E-17
  3.7750001E-03    6.9734674E-17
  3.8099999E-03   -6.7967975E-17
  3.8449999E-03   -1.2485488E-16
  3.8800000E-03    4.6900962E-17
  3.9149998E-03    1.9358815E-16
  3.9499998E-03    1.1183776E-17
  3.9849998E-03   -2.6391900E-16
  4.0199999E-03   -1.1907380E-16
  4.0549999E-03    3.1642340E-16
  4.0899999E-03    2.8673233E-16
  4.1250000E-03   -3.2071738E-16
  4.1600000E-03   -5.1497539E-16
  4.1950000E-03    2.3555346E-16
  4.2300001E-03    7.8767770E-16
  4.2650001E-03   -1.1593328E-17
  4.3000001E-03   -1.0604790E-15
  4.3350002E-03   -3.9180224E-16
  4.3700002E-03    1.2605296E-15
  4.4049998E-03    1.0022873E-15
  4.4399998E-03   -1.2806379E-15
  4.4749998E-03   -1.8070584E-15
  4.5099999E-03    9.8681159E-16
  4.5449999E-03    2.7333201E-15
  4.5799999E-03   -2.3501845E-16
  4.6150000E-03   -3.6181330E-15
  4.6500000E-03   -1.0782771E-15
  4.6850001E-03    4.2201680E-15
  4.7200001E-03    2.9890704E-15
  4.7550001E-03   -4.2126409E-15
  4.7900002E-03   -5.3929580E-15
  4.8250002E-03    3.2304896E-15
  4.8600002E-03    8.0036236E-15
  4.8949998E-03   -9.4627493E-16
  4.9299998E-03   -1.0319667E-14
  4.9649999E-03   -2.8214581E-15
  4.9999999E-03    1.1637102E-14
  5.0349999E-03    7.9710476E-15
  5.0700000E-03   -1.1162135E-14
  5.1050000E-03   -1.4054032E-14
  5.1400000E-03    8.0837225E-15
  5.1750001E-03    2.0114329E-14
  5.2100001E-03   -1.9368016E-15
  5.2450001E-03   -2.4865303E-14
  5.2800002E-03   -7.3708528E-15
  5.3150002E-03    2.6646074E-14
  5.3500002E-03    1.9091411E-14
  5.3849998E-03   -2.3851723E-14
  5.4199998E-03   -3.1620102E-14
  5.4549999E-03    1.5363224E-14
  5.4899999E-03    4.2556274E-14
  5.5249999E-03   -9.5332097E-16
  5.5600000E-03   -4.8981984E-14
  5.5950000E-03   -1.8277346E-14
  5.6300000E-03    4.7962915E-14
  5.6650001E-03    3.9564635E-14
  5.7000001E-03   -3.7546291E-14
  5.7350001E-03   -5.8861824E-14
  5.7700002E-03    1.7364663E-14
  5.8050002E-03    7.1240621E-14
  5.8400002E-03    1.0485959E-14
  5.8749998E-03   -7.2144541E-14
  5.9099998E-03   -4.1405847E-14
  5.9449999E-03    5.8663103E-14
  5.9799999E-03    6.8648666E-14
  6.0149999E-03   -3.0885098E-14
  6.0500000E-03   -8.4471784E-14
  6.0850000E-03   -6.9934805E-15
  6.1200000E-03    8.2337532E-14
  6.1550001E-03    4.6899713E-14
  6.1900001E-03   -5.8885466E-14
  6.2250001E-03   -7.7951920E-14
  6.2600002E-03    1.5902518E-14
  6.2950002E-03    8.8545389E-14
  6.3299998E-03    3.8482489E-14
  6.3649998E-03   -6.9751300E-14
  6.3999998E-03   -9.0477030E-14
  6.4349999E-03    1.8338772E-14
  6.4699999E-03    1.2255714E-13
  6.5049999E-03    6.0141392E-14
  6.5400000E-03   -1.1802272E-13
  6.5750000E-03   -1.5114120E-13
  6.6100000E-03    6.5508268E-14
  6.6450001E-03    2.3312632E-13
  6.6800001E-03    3.7618773E-14
  6.7150001E-03   -2.8041263E-13
  6.7500002E-03   -1.8128310E-13
  6.7850002E-03    2.7056916E-13
  6.8199998E-03    3.4484500E-13
  6.8549998E-03   -1.8851514E-13
  6.8899998E-03   -4.9952528E-13
  6.9249999E-03    3.1213825E-14
  6.9599999E-03    6.1454986E-13
  6.9949999E-03    1.9212533E-13
  7.0300000E-03   -6.6250559E-13
  7.0650000E-03   -4.6207845E-13
  7.1000000E-03    6.2405403E-13
  7.1350001E-03    7.5480708E-13
  7.1700001E-03   -4.8711024E-13
  7.2050001E-03   -1.0451563E-12
  7.2400002E-03    2.4543624E-13
  7.2750002E-03    1.3101706E-12
  7.3099998E-03    1.0799394E-13
  7.3449998E-03   -1.5248032E-12
  7.3799998E-03   -5.8384200E-13
  7.4149999E-03    1.6548482E-12
  7.4499999E-03    1.1962995E-12
  7.4850000E-03   -1.6435516E-12
  7.5200000E-03   -1.9493582E-12
  7.5550000E-03    1.4053377E-12
  7.5900001E-03    2.8151604E-12
  7.6250001E-03   -8.3081838E-13
  7.6600001E-03   -3.7081085E-12
  7.6950002E-03   -1.9106126E-13
  7.7300002E-03    4.4633199E-12
  7.7650002E-03    1.7312914E-12
  7.7999998E-03   -4.8333095E-12
  7.8349998E-03   -3.7656241E-12
  7.8699999E-03    4.5154934E-12
  7.9049999E-03    6.1213656E-12
  7.9399999E-03   -3.2167628E-12
  7.9750000E-03   -8.4507913E-12
  8.0100000E-03    7.4248680E-13
  8.0450000E-03    1.0245169E-11
  8.0800001E-03    2.9070268E-12
  8.1150001E-03   -1.0895434E-11
  8.1500001E-03   -7.4457541E-12
  8.1850002E-03    9.8171644E-12
  8.2200002E-03    1.2258464E-11
  8.2550002E-03   -6.6335518E-12
  8.2900003E-03   -1.6469158E-11
  8.3250003E-03    1.3325528E-12
  8.3600003E-03    1.9104510E-11
  8.3950004E-03    5.6690512E-12
  8.4300004E-03   -1.9272367E-11
  8.4650004E-03   -1.3522719E-11
  8.5000005E-03    1.6354243E-11
  8.5349996E-03    2.1013793E-11
  8.5699996E-03   -1.0210797E-11
  8.6049996E-03   -2.6736576E-11
  8.6399997E-03    1.3591910E-12
  8.6749997E-03    2.9454265E-11
  8.7099997E-03    9.1117287E-12
  8.7449998E-03   -2.8377653E-11
  8.7799998E-03   -1.9778401E-11
  8.8149998E-03    2.3262206E-11
  8.8499999E-03    2.9079655E-11
  8.8849999E-03   -1.4461768E-11
  8.9199999E-03   -3.5507517E-11
  8.9550000E-03    3.0056322E-12
  8.9900000E-03    3.7984265E-11
  9.0250000E-03    9.6296244E-12
  9.0600001E-03   -3.6072888E-11
  9.0950001E-03   -2.1893291E-11
  9.1300001E-03    2.9850258E-11
  9.1650002E-03    3.2239256E-11
  9.2000002E-03   -1.9949395E-11
  9.2350002E-03   -3.9311807E-11
  9.2700003E-03    7.5454001E-12
  9.3050003E-03    4.2169324E-11
  9.3400003E-03    5.6846671E-12
  9.3750004E-03   -4.0795117E-11
  9.4100004E-03   -1.8397126E-11
  9.4450004E-03    3.5496453E-11
  9.4799995E-03    2.9460285E-11
  9.5149996E-03   -2.6740169E-11
  9.5499996E-03   -3.7721042E-11
  9.5849996E-03    1.5387920E-11
  9.6199997E-03    4.2030105E-11
  9.6549997E-03   -3.3296187E-12
  9.6899997E-03   -4.2734302E-11
  9.7249998E-03   -8.3973271E-12
  9.7599998E-03    4.0189730E-11
  9.7949998E-03    1.8819939E-11
  9.8299999E-03   -3.5289129E-11
  9.8649999E-03   -2.7979473E-11
  9.8999999E-03    2.7717821E-11
  9.9350000E-03    3.4397037E-11
  9.9700000E-03   -1.9097319E-11
  1.0005000E-02   -3.8541292E-11
  1.0040000E-02    9.5161145E-12
  1.0075000E-02    3.9400570E-11
  1.0110000E-02   -1.4735048E-12
  1.0145000E-02   -3.9903678E-11
  1.0180000E-02   -7.7117757E-12
  1.0215000E-02    3.7189835E-11
  1.0250000E-02    1.4579365E-11
  1.0285000E-02   -3.5013416E-11
  1.0320000E-02   -2.2811610E-11
  1.0355000E-02    2.9566658E-11
  1.0390000E-02    2.8003721E-11
  1.0425000E-02   -2.6231160E-11
  1.0460000E-02   -3.6697426E-11
  1.0495000E-02    1.7721250E-11
  1.0530000E-02    4.1938692E-11
  1.0565000E-02   -1.0390642E-11
  1.0600000E-02   -5.1421759E-11
  1.0635000E-02   -7.2400796E-12
  1.0670000E-02    5.0405492E-11
  1.0705000E-02    2.0433098E-11
  1.0740000E-02   -5.2404352E-11
  1.0775000E-02   -4.4580062E-11
  1.0810000E-02    3.7592558E-11
  1.0845000E-02    5.8523547E-11
  1.0880000E-02   -2.3522790E-11
  1.0915000E-02   -7.7964600E-11
  1.0950000E-02   -1.1771579E-11
  1.0985000E-02    7.0962375E-11
  1.1020000E-02    3.2829829E-11
  1.1055000E-02   -6.9023363E-11
  1.1090000E-02   -7.0105526E-11
  1.1125000E-02    3.3352949E-11
  1.1160000E-02    7.4493869E-11
  1.1195000E-02   -1.5529605E-11
  1.1230000E-02   -9.5964237E-11
  1.1265000E-02   -4.0616035E-11
  1.1300000E-02    6.4210769E-11
  1.1335000E-02    5.7275833E-11
  1.1370000E-02   -4.9810808E-11
  1.1405000E-02   -9.5419769E-11
  1.1440000E-02   -1.2853790E-11
  1.1475000E-02    7.3078578E-11
  1.1510000E-02    3.0315705E-11
  1.1545000E-02   -8.6200373E-11
  1.1580000E-02   -1.0630261E-10
  1.1615000E-02    1.0412391E-11
  1.1650000E-02    9.8737803E-11
  1.1685000E-02    1.4965985E-11
  1.1720000E-02   -1.3385497E-10
  1.1755000E-02   -1.1989036E-10
  1.1790000E-02    5.6242597E-11
  1.1825000E-02    1.2804775E-10
  1.1860000E-02   -3.9074768E-11
  1.1895000E-02   -2.0190395E-10
  1.1930000E-02   -8.8720566E-11
  1.1965000E-02    1.4797269E-10
  1.2000000E-02    1.2801733E-10
  1.2035000E-02   -1.4857766E-10
  1.2070000E-02   -2.5670358E-10
  1.2105000E-02   -8.8430079E-12
  1.2140000E-02    2.1251650E-10
  1.2175000E-02    4.1741385E-11
  1.2210000E-02   -2.6580876E-10
  1.2245000E-02   -2.1497039E-10
  1.2280000E-02    1.3094600E-10
  1.2315000E-02    2.2633521E-10
  1.2350000E-02   -9.0483246E-11
  1.2385000E-02   -3.2320879E-10
  1.2420000E-02   -9.9749181E-11
  1.2455000E-02    2.2800331E-10
  1.2490000E-02    1.3747664E-10
  1.2525000E-02   -2.3149307E-10
  1.2560000E-02   -2.9627684E-10
  1.2595000E-02    4.2205725E-11
  1.2630000E-02    2.4296926E-10
  1.2665000E-02   -1.2279601E-11
  1.2700000E-02   -3.1376504E-10
  1.2735000E-02   -1.8086264E-10
  1.2770000E-02    1.7448988E-10
  1.2805000E-02    1.9834324E-10
  1.2840000E-02   -1.2317362E-10
  1.2875000E-02   -2.6967364E-10
  1.2910000E-02   -2.8216828E-11
  1.2945000E-02    2.0324360E-10
  1.2980000E-02    7.7941452E-11
  1.3015000E-02   -1.8270405E-10
  1.3050000E-02   -1.8139520E-10
  1.3085000E-02    5.5329186E-11
  1.3120000E-02    1.7064543E-10
  1.3155000E-02    1.9350070E-11
  1.3190000E-02   -1.6189122E-10
  1.3225000E-02   -1.1630016E-10
  1.3260000E-02    8.9498811E-11
  1.3295000E-02    1.7226238E-10
  1.3330000E-02    2.5148694E-11
  1.3365000E-02   -1.2661523E-10
  1.3400000E-02   -4.6203433E-11
  1.3435000E-02    1.5478588E-10
  1.3470000E-02    1.7629094E-10
  1.3505000E-02   -8.0686942E-12
  1.3540000E-02   -1.1565184E-10
  1.3575000E-02    2.2292973E-12
  1.3610000E-02    1.5938401E-10
  1.3645000E-02    1.4926410E-10
  1.3680000E-02    2.1883939E-11
  1.3715000E-02   -3.8627171E-11
  1.3750000E-02    4.8538215E-11
  1.3785000E-02    1.8796176E-10
  1.3820000E-02    2.0720914E-10
  1.3855000E-02    7.2867302E-11
  1.3890000E-02   -2.0961986E-11
  1.3925000E-02    7.8668856E-11
  1.3960000E-02    2.2293563E-10
  1.3995000E-02    1.9019947E-10
  1.4030000E-02    5.2659831E-11
  1.4065000E-02    3.7769569E-11
  1.4100000E-02    1.3388111E-10
  1.4135000E-02    1.5866349E-10
  1.4170000E-02    1.3075599E-10
  1.4205000E-02    1.8508454E-10
  1.4240000E-02    2.2342851E-10
  1.4275000E-02    1.1509116E-10
  1.4310000E-02    5.8723172E-11
  1.4345000E-02    2.1629444E-10
  1.4380000E-02    3.0371647E-10
  1.4415000E-02    8.9668384E-11
  1.4450000E-02   -1.1842584E-10
  1.4485000E-02    1.2798806E-11
  1.4520000E-02    2.6695218E-10
  1.4555000E-02    2.4976785E-10
  1.4590000E-02    3.0381125E-11
  1.4625000E-02   -2.2893530E-12
  1.4660000E-02    2.0191589E-10
  1.4695000E-02    2.9180533E-10
  1.4730000E-02    1.2849471E-10
  1.4765000E-02   -2.6058239E-11
  1.4800000E-02    1.4715921E-11
  1.4835000E-02    1.2281105E-10
  1.4870000E-02    1.0543138E-10
  1.4905000E-02   -2.2274288E-11
  1.4940000E-02   -4.5284471E-11
  1.4975000E-02    8.2116688E-11
  1.5010000E-02    7.7086580E-11
  1.5045000E-02   -1.2454629E-10
  1.5080000E-02   -1.5236908E-10
  1.5115000E-02    7.3880513E-11
  1.5150000E-02    1.3927197E-10
  1.5185000E-02   -8.1561327E-11
  1.5220000E-02   -2.0177196E-10
  1.5255000E-02   -1.2233277E-11
  1.5290000E-02    1.6053781E-10
  1.5325000E-02   -3.5445803E-11
  1.5360000E-02   -3.7054829E-10
  1.5395000E-02   -3.6988421E-10
  1.5430000E-02   -1.1952053E-10
  1.5465000E-02   -5.5371593E-11
  1.5500000E-02   -2.3249115E-10
  1.5535000E-02   -4.1452788E-10
  1.5570000E-02   -3.6406331E-10
  1.5605000E-02    3.8910810E-12
  1.5640000E-02    2.0789571E-10
  1.5675001E-02   -2.4128000E-10
  1.5710000E-02   -7.0852263E-10
  1.5745001E-02   -3.9723980E-10
  1.5780000E-02    6.7754212E-11
  1.5814999E-02   -2.2804560E-10
  1.5850000E-02   -7.8786960E-10
  1.5884999E-02   -6.2610378E-10
  1.5920000E-02    2.6638483E-11
  1.5954999E-02    9.5725129E-11
  1.5990000E-02   -5.0138721E-10
  1.6024999E-02   -6.2700661E-10
  1.6060000E-02   -5.4939473E-11
  1.6094999E-02    4.9362472E-11
  1.6130000E-02   -4.6828336E-10
  1.6164999E-02   -5.3506727E-10
  1.6200000E-02   -1.9199806E-10
  1.6235000E-02   -2.3813124E-10
  1.6270000E-02   -4.6371898E-10
  1.6305000E-02   -4.4557555E-10
  1.6340001E-02   -3.7287173E-10
  1.6375000E-02   -2.8509808E-10
  1.6410001E-02   -1.6135543E-10
  1.6445000E-02   -2.2972088E-10
  1.6480001E-02   -3.6138575E-10
  1.6515000E-02   -2.0584820E-10
  1.6550001E-02    1.3801345E-10
  1.6585000E-02    2.0921123E-10
  1.6620001E-02   -2.0746306E-10
  1.6655000E-02   -4.8137294E-10
  1.6690001E-02    1.0497047E-11
  1.6725000E-02    3.2873965E-10
  1.6759999E-02   -4.0804962E-10
  1.6795000E-02   -8.4607621E-10
  1.6829999E-02   -3.8795439E-11
  1.6865000E-02    4.3950632E-10
  1.6899999E-02   -2.2936861E-10
  1.6935000E-02   -5.8583849E-10
  1.6969999E-02    9.7807193E-11
  1.7005000E-02    8.0081991E-10
  1.7039999E-02    5.9034350E-10
  1.7075000E-02   -2.2896113E-10
  1.7109999E-02   -4.1251216E-10
  1.7145000E-02    4.0284348E-10
  1.7180000E-02    8.6916702E-10
  1.7215000E-02    2.0788722E-10
  1.7250000E-02   -6.2329097E-10
  1.7285001E-02   -5.5856514E-10
  1.7320000E-02    5.0110721E-10
  1.7355001E-02    1.2222546E-09
  1.7390000E-02    1.4321082E-10
  1.7425001E-02   -1.0515459E-09
  1.7460000E-02    1.4556328E-10
  1.7495001E-02    1.6798176E-09
  1.7530000E-02    6.8426359E-10
  1.7565001E-02   -8.0444684E-10
  1.7600000E-02   -2.9198841E-10
  1.7635001E-02    8.1953100E-10
  1.7670000E-02    7.0228762E-10
  1.7704999E-02   -2.3128738E-10
  1.7740000E-02   -3.7532721E-10
  1.7774999E-02    7.4017109E-10
  1.7810000E-02    1.0758201E-09
  1.7844999E-02   -9.8493269E-11
  1.7880000E-02   -2.1293894E-10
  1.7914999E-02    7.7357909E-10
  1.7950000E-02    2.5313113E-10
  1.7984999E-02   -7.2921519E-10
  1.8020000E-02   -2.5915559E-10
  1.8054999E-02    3.6966286E-10
  1.8090000E-02    6.0484090E-10
  1.8124999E-02    6.3141264E-10
  1.8160000E-02   -2.8949373E-10
  1.8195000E-02   -5.3439991E-10
  1.8230001E-02    8.0835821E-10
  1.8265000E-02    7.0753581E-10
  1.8300001E-02   -7.3839085E-10
  1.8335000E-02   -5.0069643E-10
  1.8370001E-02    1.3755405E-10
  1.8405000E-02   -2.1544010E-10
  1.8440001E-02    1.0060035E-10
  1.8475000E-02    4.4585224E-10
  1.8510001E-02   -7.5443256E-11
  1.8545000E-02   -1.4145303E-10
  1.8580001E-02   -1.6318744E-10
  1.8615000E-02   -1.6186870E-10
  1.8650001E-02    6.9484929E-10
  1.8685000E-02   -1.3232730E-10
  1.8719999E-02   -2.1396351E-09
  1.8755000E-02   -4.9245885E-10
  1.8789999E-02    2.0516246E-09
  1.8825000E-02    1.4064493E-10
  1.8859999E-02   -2.0445210E-09
  1.8895000E-02   -6.1445793E-10
  1.8929999E-02    8.8017738E-10
  1.8965000E-02    6.2503464E-10
  1.8999999E-02   -3.8775988E-10
  1.9035000E-02   -1.6268988E-09
  1.9069999E-02   -1.2532703E-09
  1.9105000E-02    4.3050694E-10
  1.9140000E-02    7.5175344E-10
  1.9175000E-02    2.7758626E-10
  1.9210000E-02   -1.1012246E-10
  1.9245001E-02   -9.4910824E-10
  1.9280000E-02   -3.3255063E-10
  1.9315001E-02    1.0364253E-09
  1.9350000E-02   -6.2903188E-10
  1.9385001E-02   -2.5870401E-09
  1.9420000E-02   -4.6999560E-10
  1.9455001E-02    1.7030292E-09
  1.9490000E-02    3.0756109E-11
  1.9525001E-02   -1.8253721E-09
  1.9560000E-02   -5.3827393E-10
  1.9595001E-02    1.5257002E-09
  1.9630000E-02    8.4720814E-10
  1.9664999E-02   -1.4232260E-09
  1.9700000E-02   -1.5445608E-09
  1.9734999E-02   -4.1099532E-10
  1.9770000E-02   -8.7724583E-10
  1.9804999E-02   -6.5543992E-10
  1.9840000E-02    1.6989727E-09
  1.9874999E-02    2.3563962E-09
  1.9910000E-02   -4.3194209E-11
  1.9944999E-02   -1.8745687E-09
  1.9980000E-02   -1.0982071E-09
  2.0014999E-02    3.5908235E-10
  2.0050000E-02   -1.1416464E-11
  2.0085000E-02   -1.1817535E-09
  2.0120000E-02   -5.0855203E-10
  2.0155000E-02    4.1723458E-10
  2.0190001E-02   -6.4825567E-10
  2.0225000E-02   -6.4343775E-10
  2.0260001E-02    9.8544028E-10
  2.0295000E-02    4.0818007E-10
  2.0330001E-02   -9.3675512E-10
  2.0365000E-02   -7.0581381E-11
  2.0400001E-02    7.7664281E-10
  2.0435000E-02   -7.0697270E-10
  2.0470001E-02   -2.3724454E-09
  2.0505000E-02   -1.0005053E-09
  2.0540001E-02    2.7170610E-09
  2.0575000E-02    3.1901763E-09
  2.0609999E-02   -4.7202431E-10
  2.0645000E-02   -2.9176850E-09
  2.0679999E-02   -2.0209392E-09
  2.0715000E-02    9.1239370E-11
  2.0749999E-02    8.1032742E-10
  2.0785000E-02   -7.9596713E-10
  2.0819999E-02   -1.6699551E-09
  2.0855000E-02    3.7194323E-10
  2.0889999E-02    2.1015889E-09
  2.0925000E-02    1.3077945E-09
  2.0959999E-02   -6.8122308E-10
  2.0995000E-02   -2.2853768E-09
  2.1029999E-02   -1.8358882E-09
  2.1065000E-02    1.3637450E-09
  2.1100000E-02    9.6141850E-10
  2.1135001E-02   -2.9053873E-09
  2.1170000E-02   -1.8992206E-09
  2.1205001E-02    3.5421841E-09
  2.1240000E-02    3.9469263E-09
  2.1275001E-02   -1.9672527E-10
  2.1310000E-02   -3.5693415E-09
  2.1345001E-02   -3.5316718E-09
  2.1380000E-02    3.7271627E-10
  2.1415001E-02    2.8376055E-09
  2.1450000E-02    1.2568438E-10
  2.1485001E-02   -1.0618170E-09
  2.1520000E-02    1.6405677E-09
  2.1555001E-02    2.2960056E-09
  2.1590000E-02   -3.4943903E-10
  2.1624999E-02   -1.6622190E-09
  2.1660000E-02   -1.5717592E-09
  2.1694999E-02   -9.9717345E-10
  2.1730000E-02    1.0169392E-09
  2.1764999E-02    3.0632861E-09
  2.1800000E-02    3.0152543E-09
  2.1834999E-02   -5.3073229E-10
  2.1870000E-02   -5.8151080E-09
  2.1904999E-02   -6.5663528E-09
  2.1940000E-02   -6.3895989E-10
  2.1974999E-02    4.7209125E-09
  2.2010000E-02    3.9279908E-09
  2.2045000E-02    1.4386488E-09
  2.2080000E-02    9.0881225E-10
  2.2115000E-02   -8.3882468E-10
  2.2150001E-02   -2.2683868E-09
  2.2185000E-02    1.3318717E-09
  2.2220001E-02    4.2141388E-09
  2.2255000E-02    3.9233852E-10
  2.2290001E-02   -4.1587302E-09
  2.2325000E-02   -2.8286289E-09
  2.2360001E-02    3.1463130E-09
  2.2395000E-02    6.1022334E-09
  2.2430001E-02    7.0209538E-10
  2.2465000E-02   -5.8843819E-09
  2.2500001E-02   -3.8022638E-09
  2.2535000E-02    2.4487274E-09
  2.2569999E-02    3.3724710E-09
  2.2605000E-02    2.4002586E-10
  2.2639999E-02   -1.2203202E-09
  2.2675000E-02   -8.3518337E-10
  2.2709999E-02    6.1541241E-12
  2.2745000E-02    2.3570995E-10
  2.2779999E-02    9.6100106E-10
  2.2815000E-02    3.1674783E-09
  2.2849999E-02    3.5447629E-09
  2.2885000E-02   -7.4458750E-10
  2.2919999E-02   -5.7328289E-09
  2.2955000E-02   -4.6073518E-09
  2.2990000E-02    1.3875235E-09
  2.3025000E-02    5.0523155E-09
  2.3060000E-02    3.2829319E-09
  2.3095001E-02   -4.4351986E-10
  2.3130000E-02   -2.3405984E-09
  2.3165001E-02   -3.2779455E-09
  2.3200000E-02   -3.8243995E-09
  2.3235001E-02   -1.7172798E-09
  2.3270000E-02    2.3926019E-09
  2.3305001E-02    4.9352682E-09
  2.3340000E-02    2.3876512E-09
  2.3375001E-02   -3.9512718E-09
  2.3410000E-02   -5.6634955E-09
  2.3445001E-02    7.1500078E-10
  2.3480000E-02    5.0686699E-09
  2.3514999E-02    1.1265332E-09
  2.3550000E-02   -4.7627058E-09
  2.3584999E-02   -6.3940573E-09
  2.3620000E-02   -1.3941319E-09
  2.3654999E-02    4.9041815E-09
  2.3690000E-02    3.3109142E-09
  2.3724999E-02   -5.0021107E-09
  2.3760000E-02   -1.0078488E-08
  2.3794999E-02   -6.4517178E-09
  2.3830000E-02    3.0620311E-09
  2.3864999E-02    8.2996134E-09
  2.3900000E-02    2.6008335E-09
  2.3934999E-02   -5.0122413E-09
  2.3970000E-02   -5.1717661E-09
  2.4005000E-02   -2.3576283E-09
  2.4040001E-02   -5.0785937E-10
  2.4075000E-02    1.3054725E-09
  2.4110001E-02    1.7081241E-09
  2.4145000E-02   -6.0423733E-10
  2.4180001E-02   -4.3151913E-09
  2.4215000E-02   -5.9084062E-09
  2.4250001E-02   -5.5421601E-10
  2.4285000E-02    7.0044375E-09
  2.4320001E-02    4.4198361E-09
  2.4355000E-02   -5.9320597E-09
  2.4390001E-02   -8.5842577E-09
  2.4425000E-02   -5.1771171E-10
  2.4460001E-02    6.5009398E-09
  2.4495000E-02    4.1143164E-09
  2.4529999E-02   -4.1019028E-09
  2.4565000E-02   -7.8958822E-09
  2.4599999E-02   -2.8687441E-09
  2.4635000E-02    4.2507491E-09
  2.4669999E-02    5.5778893E-09
  2.4705000E-02    1.6484860E-09
  2.4739999E-02   -1.2313179E-09
  2.4775000E-02   -1.0835133E-09
  2.4809999E-02   -2.5695523E-09
  2.4845000E-02   -4.2243955E-09
  2.4879999E-02    1.4357606E-09
  2.4915000E-02    8.6118543E-09
  2.4950000E-02    5.0616098E-09
  2.4985000E-02   -2.9647969E-09
  2.5020000E-02   -2.7318916E-09
  2.5055001E-02    2.2773325E-09
  2.5090000E-02    3.8291241E-09
  2.5125001E-02    1.9458100E-09
  2.5160000E-02   -1.6608396E-09
  2.5195001E-02   -4.5837880E-09
  2.5230000E-02   -2.5765907E-09
  2.5265001E-02    3.7323558E-09
  2.5300000E-02    8.2659080E-09
  2.5335001E-02    6.0996022E-09
  2.5370000E-02   -9.3384189E-10
  2.5405001E-02   -5.0035638E-09
  2.5440000E-02   -3.1172382E-09
  2.5474999E-02    4.0776757E-11
  2.5510000E-02    3.7153352E-09
  2.5544999E-02    8.4310168E-09
  2.5580000E-02    7.1203092E-09
  2.5614999E-02   -1.1716804E-09
  2.5650000E-02   -5.5536939E-09
  2.5684999E-02   -2.9125906E-09
  2.5720000E-02    1.6216936E-10
  2.5754999E-02    2.5054574E-09
  2.5790000E-02    4.0284180E-09
  2.5824999E-02    6.6886263E-10
  2.5860000E-02   -4.5458695E-09
  2.5895000E-02   -4.1856603E-09
  2.5930000E-02    1.9069138E-10
  2.5965000E-02    3.2895047E-09
  2.6000001E-02    4.9247166E-09
  2.6035000E-02    4.4909028E-09
  2.6070001E-02    7.2340128E-10
  2.6105000E-02   -1.9097322E-09
  2.6140001E-02   -6.7351041E-10
  2.6175000E-02   -8.9385543E-10
  2.6210001E-02   -3.6733789E-09
  2.6245000E-02   -2.6299714E-09
  2.6280001E-02    1.6946413E-09
  2.6315000E-02    3.0258225E-09
  2.6350001E-02    1.5613426E-09
  2.6385000E-02   -6.0539929E-10
  2.6419999E-02   -3.8080437E-09
  2.6455000E-02   -4.3087534E-09
  2.6489999E-02    1.9798457E-10
  2.6525000E-02    3.7395593E-09
  2.6559999E-02    3.0257017E-09
  2.6595000E-02    1.9328952E-09
  2.6629999E-02    1.2704294E-09
  2.6665000E-02   -1.2411039E-09
  2.6699999E-02   -3.9308286E-09
  2.6735000E-02   -3.8789949E-09
  2.6769999E-02   -1.0439414E-09
  2.6805000E-02    2.8950402E-09
  2.6839999E-02    4.7149489E-09
  2.6875000E-02    1.5238386E-09
  2.6910000E-02   -3.7499475E-09
  2.6945001E-02   -4.5803419E-09
  2.6980000E-02   -2.8861127E-10