 -4.8000002E-03    1.0000000E-24
 -4.7650002E-03    1.0000002E-24
 -4.7300002E-03    1.0000001E-24
 -4.6950001E-03    1.0000000E-24
 -4.6600001E-03    1.0000002E-24
 -4.6250001E-03    1.0000001E-24
 -4.5900000E-03    1.0000000E-24
 -4.5550000E-03    1.0000003E-24
 -4.5200000E-03    1.0000002E-24
 -4.4849999E-03    9.9999963E-25
 -4.4499999E-03    1.0000001E-24
 -4.4149999E-03    1.0000005E-24
 -4.3799998E-03    1.0000000E-24
 -4.3449998E-03    9.9999972E-25
 -4.3100002E-03    1.0000003E-24
 -4.2750002E-03    1.0000003E-24
 -4.2400002E-03    1.0000003E-24
 -4.2050001E-03    1.0000003E-24
 -4.1700001E-03    9.9999982E-25
 -4.1350001E-03    9.9999982E-25
 -4.1000000E-03    1.0000004E-24
 -4.0650000E-03    9.9999982E-25
 -4.0300000E-03    9.9999953E-25
 -3.9949999E-03    1.0000002E-24
 -3.9599999E-03    1.0000003E-24
 -3.9249999E-03    9.9999982E-25
 -3.8900001E-03    1.0000003E-24
 -3.8550000E-03    1.0000006E-24
 -3.8200000E-03    9.9999972E-25
 -3.7849999E-03    9.9999963E-25
 -3.7499999E-03    1.0000005E-24
 -3.7150001E-03    1.0000003E-24
 -3.6800001E-03    9.9999953E-25
 -3.6450000E-03    1.0000000E-24
 -3.6100000E-03    1.0000008E-24
 -3.5750000E-03    1.0000000E-24
 -3.5399999E-03    9.9999923E-25
 -3.5049999E-03    9.9999982E-25
 -3.4700001E-03    1.0000007E-24
 -3.4350001E-03    1.0000003E-24
 -3.4000000E-03    1.0000001E-24
 -3.3650000E-03    9.9999992E-25
 -3.3300000E-03    9.9999972E-25
 -3.2949999E-03    1.0000001E-24
 -3.2599999E-03    1.0000007E-24
 -3.2250001E-03    1.0000003E-24
 -3.1900001E-03    9.9999923E-25
 -3.1550000E-03    9.9999943E-25
 -3.1200000E-03    1.0000006E-24
 -3.0850000E-03    1.0000006E-24
 -3.0499999E-03    9.9999943E-25
 -3.0149999E-03    1.0000000E-24
 -2.9800001E-03    1.0000013E-24
 -2.9450001E-03    1.0000001E-24
 -2.9100000E-03    9.9999864E-25
 -2.8750000E-03    9.9999992E-25
 -2.8400000E-03    1.0000013E-24
 -2.8049999E-03    9.9999992E-25
 -2.7699999E-03    9.9999893E-25
 -2.7350001E-03    9.9999982E-25
 -2.7000001E-03    1.0000006E-24
 -2.6650000E-03    1.0000006E-24
 -2.6300000E-03    1.0000004E-24
 -2.5950000E-03    9.9999992E-25
 -2.5599999E-03    1.0000001E-24
 -2.5249999E-03    1.0000003E-24
 -2.4900001E-03    9.9999992E-25
 -2.4550001E-03    9.9999923E-25
 -2.4200000E-03    9.9999953E-25
 -2.3850000E-03    1.0000004E-24
 -2.3500000E-03    1.0000009E-24
 -2.3149999E-03    1.0000002E-24
 -2.2799999E-03    9.9999953E-25
 -2.2450001E-03    9.9999943E-25
 -2.2100001E-03    9.9999963E-25
 -2.1750000E-03    9.9999982E-25
 -2.1400000E-03    1.0000003E-24
 -2.1050000E-03    1.0000011E-24
 -2.0699999E-03    1.0000008E-24
 -2.0349999E-03    1.0000001E-24
 -2.0000001E-03    9.9999943E-25
 -1.9650001E-03    9.9999933E-25
 -1.9300000E-03    1.0000001E-24
 -1.8950000E-03    1.0000005E-24
 -1.8600000E-03    1.0000001E-24
 -1.8250000E-03    1.0000002E-24
 -1.7900000E-03    1.0000006E-24
 -1.7550000E-03    9.9999953E-25
 -1.7199999E-03    9.9999893E-25
 -1.6850000E-03    1.0000008E-24
 -1.6500000E-03    1.0000009E-24
 -1.6150000E-03    9.9999884E-25
 -1.5800000E-03    9.9999982E-25
 -1.5450000E-03    1.0000021E-24
 -1.5100000E-03    9.9999854E-25
 -1.4750001E-03    9.9999795E-25
 -1.4400000E-03    1.0000068E-24
 -1.4050000E-03    9.9999805E-25
 -1.3700000E-03    9.9998059E-25
 -1.3350000E-03    1.0000232E-24
 -1.3000000E-03    1.0000382E-24
 -1.2650000E-03    9.9990023E-25
 -1.2300001E-03    9.9997172E-25
 -1.1950000E-03    1.0003035E-24
 -1.1600000E-03    9.9983870E-25
 -1.1250000E-03    9.9931233E-25
 -1.0900000E-03    1.0009621E-24
 -1.0550000E-03    1.0010176E-24
 -1.0200000E-03    9.9675889E-25
 -9.8500005E-04    1.0000386E-24
 -9.5000002E-04    1.0079735E-24
 -9.1499998E-04    9.9344054E-25
 -8.8000001E-04    9.8596323E-25
 -8.4499997E-04    1.0274516E-24
 -8.1000000E-04    1.0113942E-24
 -7.7500002E-04    9.2426977E-25
 -7.3999999E-04    1.0337999E-24
 -7.0500001E-04    1.1555109E-24
 -6.6999998E-04    7.9801322E-25
 -6.3500000E-04    7.8283785E-25
 -6.0000003E-04    1.6356572E-24
 -5.6499999E-04    1.0530431E-24
 -5.3000002E-04   -4.9666653E-25
 -4.9499999E-04    1.8819018E-24
 -4.6000001E-04    3.7558808E-24
 -4.2500001E-04   -2.6736977E-24
 -3.9000000E-04   -2.6463497E-24
 -3.5500000E-04    1.0959282E-23
 -3.1999999E-04    2.6256515E-24
 -2.8499999E-04   -2.0236026E-23
 -2.5000001E-04    1.0074628E-23
 -2.1499999E-04    3.7621988E-23
 -1.8000000E-04   -3.7594274E-23
 -1.4500000E-04   -4.7074867E-23
 -1.1000000E-04    1.0139309E-22
 -7.5000004E-05    3.3626925E-23
 -3.9999999E-05   -2.0355523E-22
 -4.9999999E-06    5.7902491E-23
  2.9999999E-05    3.4175767E-22
  6.5000000E-05   -2.9646678E-22
  9.9999997E-05   -4.4568314E-22
  1.3499999E-04    7.8785742E-22
  1.7000000E-04    3.6279110E-22
  2.0500000E-04   -1.6027586E-21
  2.3999999E-04    2.2504288E-22
  2.7500000E-04    2.7184909E-21
  3.1000000E-04   -1.8009850E-21
  3.4500001E-04   -3.8319618E-21
  3.8000001E-04    5.0124625E-21
  4.1499999E-04    4.1745507E-21
  4.4999999E-04   -1.0480306E-20
  4.8500000E-04   -2.2363068E-21
  5.2000000E-04    1.8476934E-20
  5.5499998E-04   -4.3899893E-21
  5.9000001E-04   -2.8290039E-20
  6.2499999E-04    1.9034463E-20
  6.6000002E-04    3.7386796E-20
  6.9500000E-04   -4.5526040E-20
  7.3000003E-04   -4.0314156E-20
  7.6500000E-04    8.7220341E-20
  7.9999998E-04    2.7635891E-20
  8.3500001E-04   -1.4512725E-19
  8.6999999E-04    1.4915976E-20
  9.0500002E-04    2.1509812E-19
  9.4000000E-04   -1.0650085E-19
  9.7499997E-04   -2.8390136E-19
  1.0100000E-03    2.6999635E-19
  1.0450000E-03    3.2447025E-19
  1.0800000E-03   -5.2880302E-19
  1.1150000E-03   -2.9061605E-19
  1.1500000E-03    9.0106552E-19
  1.1849999E-03    1.1207793E-19
  1.2200000E-03   -1.3905341E-18
  1.2550000E-03    3.0909566E-19
  1.2900000E-03    1.9736724E-18
  1.3250000E-03   -1.0991220E-18
  1.3600000E-03   -2.5825983E-18
  1.3950000E-03    2.4079341E-18
  1.4299999E-03    3.0841005E-18
  1.4650000E-03   -4.3963231E-18
  1.5000000E-03   -3.2553344E-18
  1.5350000E-03    7.2107849E-18
  1.5700000E-03    2.7579382E-18
  1.6050000E-03   -1.0940800E-17
  1.6400000E-03   -1.1131091E-18
  1.6749999E-03    1.5553009E-17
  1.7100000E-03   -2.3184613E-18
  1.7450000E-03   -2.0797215E-17
  1.7800000E-03    8.3471342E-18
  1.8150000E-03    2.6082088E-17
  1.8500000E-03   -1.7949553E-17
  1.8850000E-03   -3.0323151E-17
  1.9200000E-03    3.2241389E-17
  1.9550000E-03    3.1772606E-17
  1.9900000E-03   -5.2418224E-17
  2.0250001E-03   -2.7848068E-17
  2.0600001E-03    7.9651087E-17
  2.0949999E-03    1.4984104E-17
  2.1299999E-03   -1.1491978E-16
  2.1650000E-03    1.1462996E-17
  2.2000000E-03    1.5876386E-16
  2.2350000E-03   -5.7220351E-17
  2.2700001E-03   -2.1093112E-16
  2.3050001E-03    1.2896491E-16
  2.3399999E-03    2.6990236E-16
  2.3749999E-03   -2.3398473E-16
  2.4100000E-03   -3.3226501E-16
  2.4450000E-03    3.7954678E-16
  2.4800000E-03    3.9188509E-16
  2.5150001E-03   -5.7187414E-16
  2.5500001E-03   -4.3879465E-16
  2.5849999E-03    8.1466009E-16
  2.6199999E-03    4.5768171E-16
  2.6550000E-03   -1.1071280E-15
  2.6900000E-03   -4.2588740E-16
  2.7250000E-03    1.4417846E-15
  2.7600001E-03    3.1092782E-16
  2.7950001E-03   -1.8021549E-15
  2.8299999E-03   -6.7769419E-17
  2.8649999E-03    2.1608395E-15
  2.9000000E-03   -3.6366094E-16
  2.9350000E-03   -2.4781247E-15
  2.9700000E-03    1.0601309E-15
  3.0050001E-03    2.7011207E-15
  3.0400001E-03   -2.1155450E-15
  3.0749999E-03   -2.7632925E-15
  3.1099999E-03    3.6403312E-15
  3.1450000E-03    2.5846846E-15
  3.1800000E-03   -5.7604839E-15
  3.2150000E-03   -2.0744377E-15
  3.2500001E-03    8.6166595E-15
  3.2850001E-03    1.1392228E-15
  3.3199999E-03   -1.2361655E-14
  3.3549999E-03    2.9717709E-16
  3.3900000E-03    1.7150134E-14
  3.4250000E-03   -2.2586758E-15
  3.4600000E-03   -2.3108428E-14
  3.4950001E-03    4.6673311E-15
  3.5300001E-03    3.0267611E-14
  3.5649999E-03   -7.2919559E-15
  3.5999999E-03   -3.8444291E-14
  3.6350000E-03    9.7221688E-15
  3.6700000E-03    4.7064783E-14
  3.7050000E-03   -1.1407951E-14
  3.7400001E-03   -5.4949636E-14
  3.7750001E-03    1.1808549E-14
  3.8099999E-03    6.0104618E-14
  3.8449999E-03   -1.0685019E-14
  3.8800000E-03   -5.9594182E-14
  3.9149998E-03    8.5433488E-15
  3.9499998E-03    4.9595795E-14
  3.9849998E-03   -7.1950968E-15
  4.0199999E-03   -2.5742680E-14
  4.0549999E-03    1.0352664E-14
  4.0899999E-03   -1.6139620E-14
  4.1250000E-03   -2.4116400E-14
  4.1600000E-03    7.8811483E-14
  4.1950000E-03    5.7121761E-14
  4.2300001E-03   -1.6187409E-13
  4.2650001E-03   -1.1999698E-13
  4.3000001E-03    2.5960730E-13
  4.3350002E-03    2.2368221E-13
  4.3700002E-03   -3.5876789E-13
  4.4049998E-03   -3.7616977E-13
  4.4399998E-03    4.3711091E-13
  4.4749998E-03    5.7744895E-13
  4.5099999E-03   -4.6382370E-13
  4.5449999E-03   -8.1301388E-13
  4.5799999E-03    4.0333614E-13
  4.6150000E-03    1.0472698E-12
  4.6500000E-03   -2.2371608E-13
  4.6850001E-03   -1.2193604E-12
  4.7200001E-03   -9.0270036E-14
  4.7550001E-03    1.2447167E-12
  4.7900002E-03    5.2128007E-13
  4.8250002E-03   -1.0253801E-12
  4.8600002E-03   -1.0047455E-12
  4.8949998E-03    4.7055908E-13
  4.9299998E-03    1.4211923E-12
  4.9649999E-03    4.7400918E-13
  4.9999999E-03   -1.6016807E-12
  5.0349999E-03   -1.7930465E-12
  5.0700000E-03    1.3507334E-12
  5.1050000E-03    3.3734931E-12
  5.1400000E-03   -4.8711875E-13
  5.1750001E-03   -4.9905600E-12
  5.2100001E-03   -1.1018387E-12
  5.2450001E-03    6.3163676E-12
  5.2800002E-03    3.4006797E-12
  5.3150002E-03   -6.9568964E-12
  5.3500002E-03   -6.2125183E-12
  5.3849998E-03    6.5193298E-12
  5.4199998E-03    9.1264175E-12
  5.4549999E-03   -4.7060541E-12
  5.4899999E-03   -1.1520416E-11
  5.5249999E-03    1.4252921E-12
  5.5600000E-03    1.2613904E-11
  5.5950000E-03    3.0980179E-12
  5.6300000E-03   -1.1581486E-11
  5.6650001E-03   -8.2379572E-12
  5.7000001E-03    7.7338830E-12
  5.7350001E-03    1.2951690E-11
  5.7700002E-03   -7.4854917E-13
  5.8050002E-03   -1.5877820E-11
  5.8400002E-03   -9.1031488E-12
  5.8749998E-03    1.5570940E-11
  5.9099998E-03    2.0808999E-11
  5.9449999E-03   -1.0851241E-11
  5.9799999E-03   -3.2624001E-11
  6.0149999E-03    1.2053046E-12
  6.0500000E-03    4.2287208E-11
  6.0850000E-03    1.2867426E-11
  6.1200000E-03   -4.7453208E-11
  6.1550001E-03   -2.9697921E-11
  6.1900001E-03    4.6253400E-11
  6.2250001E-03    4.6580090E-11
  6.2600002E-03   -3.7818273E-11
  6.2950002E-03   -6.0173290E-11
  6.3299998E-03    2.2608396E-11
  6.3649998E-03    6.7052343E-11
  6.3999998E-03   -2.5056101E-12
  6.4349999E-03   -6.4284668E-11
  6.4699999E-03   -1.9313148E-11
  6.5049999E-03    4.9960872E-11
  6.5400000E-03    3.8684205E-11
  6.5750000E-03   -2.3626105E-11
  6.6100000E-03   -5.0889279E-11
  6.6450001E-03   -1.3384197E-11
  6.6800001E-03    5.1179568E-11
  6.7150001E-03    5.7634723E-11
  6.7500002E-03   -3.5523202E-11
  6.7850002E-03   -1.0338471E-10
  6.8199998E-03    1.7643149E-12
  6.8549998E-03    1.4289088E-10
  6.8899998E-03    4.8968440E-11
  6.9249999E-03   -1.6764262E-10
  6.9599999E-03   -1.1123479E-10
  6.9949999E-03    1.7048299E-10
  7.0300000E-03    1.7531236E-10
  7.0650000E-03   -1.4808114E-10
  7.1000000E-03   -2.2865722E-10
  7.1350001E-03    1.0297214E-10
  7.1700001E-03    2.5882285E-10
  7.2050001E-03   -4.4129724E-11
  7.2400002E-03   -2.5715921E-10
  7.2750002E-03   -1.4795509E-11
  7.3099998E-03    2.2165762E-10
  7.3449998E-03    5.9188397E-11
  7.3799998E-03   -1.5739417E-10
  7.4149999E-03   -7.7340120E-11
  7.4499999E-03    7.4551289E-11
  7.4850000E-03    6.2766445E-11
  7.5200000E-03    1.4701696E-11
  7.5550000E-03   -1.4365523E-11
  7.5900001E-03   -9.8934909E-11
  7.6250001E-03   -6.5227192E-11
  7.6600001E-03    1.6833486E-10
  7.6950002E-03    1.7145203E-10
  7.7300002E-03   -2.1344286E-10
  7.7650002E-03   -2.9738084E-10
  7.7999998E-03    2.2416452E-10
  7.8349998E-03    4.3085202E-10
  7.8699999E-03   -1.9208594E-10
  7.9049999E-03   -5.5239369E-10
  7.9399999E-03    1.1596982E-10
  7.9750000E-03    6.3702876E-10
  8.0100000E-03   -7.7981068E-12
  8.0450000E-03   -6.6121275E-10
  8.0800001E-03   -1.0415591E-10
  8.1150001E-03    6.1472372E-10
  8.1500001E-03    1.8083894E-10
  8.1850002E-03   -5.1166016E-10
  8.2200002E-03   -1.8884359E-10
  8.2550002E-03    3.8947998E-10
  8.2900003E-03    1.1822826E-10
  8.3250003E-03   -2.9353514E-10
  8.3600003E-03    1.0993094E-11
  8.3950004E-03    2.5696831E-10
  8.4300004E-03   -1.5558403E-10
  8.4650004E-03   -2.8370997E-10
  8.5000005E-03    2.6796199E-10
  8.5349996E-03    3.4156344E-10
  8.5699996E-03   -3.2563921E-10
  8.6049996E-03   -3.8027959E-10
  8.6399997E-03    3.4924211E-10
  8.6749997E-03    3.6972084E-10
  8.7099997E-03   -3.8458103E-10
  8.7449998E-03   -3.2090544E-10
  8.7799998E-03    4.6720305E-10
  8.8149998E-03    2.7524236E-10
  8.8499999E-03   -6.0100630E-10
  8.8849999E-03   -2.8374109E-10
  8.9199999E-03    7.4648460E-10
  8.9550000E-03    3.7430545E-10
  8.9900000E-03   -8.2834523E-10
  9.0250000E-03   -5.0908106E-10
  9.0600001E-03    7.9463297E-10
  9.0950001E-03    5.9643807E-10
  9.1300001E-03   -6.7477279E-10
  9.1650002E-03   -5.6951577E-10
  9.2000002E-03    5.5308502E-10
  9.2350002E-03    4.2906517E-10
  9.2700003E-03   -5.1096183E-10
  9.3050003E-03   -2.2967654E-10
  9.3400003E-03    6.0408883E-10
  9.3750004E-03    8.1222744E-11
  9.4100004E-03   -8.0886986E-10
  9.4450004E-03   -1.0040691E-10
  9.4799995E-03    9.8022213E-10
  9.5149996E-03    2.7351407E-10
  9.5499996E-03   -9.7681974E-10
  9.5849996E-03   -4.4962922E-10
  9.6199997E-03    8.0674789E-10
  9.6549997E-03    5.0697074E-10
  9.6899997E-03   -5.6374605E-10
  9.7249998E-03   -4.0157583E-10
  9.7599998E-03    3.5359315E-10
  9.7949998E-03    1.2971159E-10
  9.8299999E-03   -3.3572164E-10
  9.8649999E-03    1.5737130E-10
  9.8999999E-03    5.6825317E-10
  9.9350000E-03   -1.9693765E-10
  9.9700000E-03   -8.1860385E-10
  1.0005000E-02   -3.4831360E-11
  1.0040000E-02    8.2991092E-10
  1.0075000E-02    2.9803018E-10
  1.0110000E-02   -6.1735406E-10
  1.0145000E-02   -4.4086515E-10
  1.0180000E-02    2.6147798E-10
  1.0215000E-02    3.6410441E-10
  1.0250000E-02    1.3725621E-10
  1.0285000E-02    7.7835169E-11
  1.0320000E-02   -2.2268196E-10
  1.0355000E-02   -6.7482447E-10
  1.0390000E-02   -2.4041005E-10
  1.0425000E-02    8.8412566E-10
  1.0460000E-02    8.7986651E-10
  1.0495000E-02   -5.9388999E-10
  1.0530000E-02   -1.2799717E-09
  1.0565000E-02    8.6985322E-11
  1.0600000E-02    1.4085130E-09
  1.0635000E-02    5.2990612E-10
  1.0670000E-02   -1.1557965E-09
  1.0705000E-02   -1.0273101E-09
  1.0740000E-02    4.6897092E-10
  1.0775000E-02    8.9346069E-10
  1.0810000E-02    3.5829284E-11
  1.0845000E-02   -2.9021680E-10
  1.0880000E-02    1.0801188E-10
  1.0915000E-02   -8.3331869E-11
  1.0950000E-02   -5.2617016E-10
  1.0985000E-02    1.0333344E-10
  1.1020000E-02    8.9397073E-10
  1.1055000E-02    4.6683782E-11
  1.1090000E-02   -1.2604302E-09
  1.1125000E-02   -5.3746196E-10
  1.1160000E-02    1.2478668E-09
  1.1195000E-02    1.0777633E-09
  1.1230000E-02   -6.6777772E-10
  1.1265000E-02   -9.8370567E-10
  1.1300000E-02    2.2846088E-10
  1.1335000E-02    4.6555537E-10
  1.1370000E-02   -2.9725464E-10
  1.1405000E-02   -8.1415853E-11
  1.1440000E-02    5.7215482E-10
  1.1475000E-02   -1.0661683E-10
  1.1510000E-02   -8.7349311E-10
  1.1545000E-02    1.6924923E-10
  1.1580000E-02    1.2651401E-09
  1.1615000E-02    2.1803910E-10
  1.1650000E-02   -1.1175119E-09
  1.1685000E-02   -4.0439263E-10
  1.1720000E-02    7.5166112E-10
  1.1755000E-02    3.2607450E-10
  1.1790000E-02   -2.5941529E-10
  1.1825000E-02    3.1924546E-10
  1.1860000E-02    3.6888331E-10
  1.1895000E-02   -7.1421380E-10
  1.1930000E-02   -4.4454107E-10
  1.1965000E-02    1.4193419E-09
  1.2000000E-02    1.3778719E-09
  1.2035000E-02   -9.2750152E-10
  1.2070000E-02   -1.2371132E-09
  1.2105000E-02    1.1619267E-09
  1.2140000E-02    1.8000621E-09
  1.2175000E-02   -2.6463878E-10
  1.2210000E-02   -9.0177837E-10
  1.2245000E-02    7.1586226E-10
  1.2280000E-02    1.1977007E-09
  1.2315000E-02    3.3060821E-10
  1.2350000E-02    7.8491119E-10
  1.2385000E-02    1.7754948E-09
  1.2420000E-02    8.5139340E-10
  1.2455000E-02   -3.0902458E-10
  1.2490000E-02    1.0032044E-09
  1.2525000E-02    2.5572531E-09
  1.2560000E-02    1.1830946E-09
  1.2595000E-02   -4.9945054E-10
  1.2630000E-02    1.3262810E-09
  1.2665000E-02    3.9289700E-09
  1.2700000E-02    3.0018241E-09
  1.2735000E-02    1.0456169E-09
  1.2770000E-02    2.1235025E-09
  1.2805000E-02    3.8984584E-09
  1.2840000E-02    3.1846197E-09
  1.2875000E-02    2.2653825E-09
  1.2910000E-02    3.1543534E-09
  1.2945000E-02    3.8510741E-09
  1.2980000E-02    3.9020867E-09
  1.3015000E-02    5.1892748E-09
  1.3050000E-02    6.6921859E-09
  1.3085000E-02    6.0986762E-09
  1.3120000E-02    5.0272879E-09
  1.3155000E-02    6.3967165E-09
  1.3190000E-02    8.6361469E-09
  1.3225000E-02    8.1040934E-09
  1.3260000E-02    6.2519425E-09
  1.3295000E-02    7.7817361E-09
  1.3330000E-02    1.1437623E-08
  1.3365000E-02    1.1773901E-08
  1.3400000E-02    1.0135869E-08
  1.3435000E-02    1.1896192E-08
  1.3470000E-02    1.5072663E-08
  1.3505000E-02    1.4873555E-08
  1.3540000E-02    1.3674994E-08
  1.3575000E-02    1.5242410E-08
  1.3610000E-02    1.7646162E-08
  1.3645000E-02    1.8481755E-08
  1.3680000E-02    1.8695365E-08
  1.3715000E-02    1.9732255E-08
  1.3750000E-02    2.1812008E-08
  1.3785000E-02    2.3895453E-08
  1.3820000E-02    2.5200727E-08
  1.3855000E-02    2.6570319E-08
  1.3890000E-02    2.7865193E-08
  1.3925000E-02    2.8247156E-08
  1.3960000E-02    2.9679644E-08
  1.3995000E-02    3.2690160E-08
  1.4030000E-02    3.3773215E-08
  1.4065000E-02    3.3400617E-08
  1.4100000E-02    3.5598827E-08
  1.4135000E-02    3.9098868E-08
  1.4170000E-02    4.1163645E-08
  1.4205000E-02    4.2951715E-08
  1.4240000E-02    4.4387022E-08
  1.4275000E-02    4.5150770E-08
  1.4310000E-02    4.7496918E-08
  1.4345000E-02    4.9876441E-08
  1.4380000E-02    4.9591137E-08
  1.4415000E-02    5.0372819E-08
  1.4450000E-02    5.4138262E-08
  1.4485000E-02    5.6660728E-08
  1.4520000E-02    5.7429290E-08
  1.4555000E-02    5.9029297E-08
  1.4590000E-02    6.1344146E-08
  1.4625000E-02    6.4199753E-08
  1.4660000E-02    6.5660963E-08
  1.4695000E-02    6.3667578E-08
  1.4730000E-02    6.3832331E-08
  1.4765000E-02    6.8543464E-08
  1.4800000E-02    6.9526017E-08
  1.4835000E-02    6.7393422E-08
  1.4870000E-02    7.0581400E-08
  1.4905000E-02    7.3744026E-08
  1.4940000E-02    7.1297094E-08
  1.4975000E-02    7.1838500E-08
  1.5010000E-02    7.5857912E-08
  1.5045000E-02    7.4520038E-08
  1.5080000E-02    7.1150438E-08
  1.5115000E-02    7.1500395E-08
  1.5150000E-02    7.2454256E-08
  1.5185000E-02    7.2630485E-08
  1.5220000E-02    7.1236144E-08
  1.5255000E-02    6.8204990E-08
  1.5290000E-02    6.9656110E-08
  1.5325000E-02    7.1761541E-08
  1.5360000E-02    6.5076698E-08
  1.5395000E-02    6.0909024E-08
  1.5430000E-02    6.6708800E-08
  1.5465000E-02    6.3891576E-08
  1.5500000E-02    5.1567881E-08
  1.5535000E-02    5.0770403E-08
  1.5570000E-02    5.5505829E-08
  1.5605000E-02    4.9771096E-08
  1.5640000E-02    4.2968775E-08
  1.5675001E-02    4.1784563E-08
  1.5710000E-02    3.8913960E-08
  1.5745001E-02    3.4476002E-08
  1.5780000E-02    2.8940173E-08
  1.5814999E-02    2.2354810E-08
  1.5850000E-02    2.0809075E-08
  1.5884999E-02    1.6909347E-08
  1.5920000E-02    3.7747045E-09
  1.5954999E-02   -4.7640003E-10
  1.5990000E-02    5.6116773E-09
  1.6024999E-02   -2.6507634E-09
  1.6060000E-02   -1.8244187E-08
  1.6094999E-02   -1.9275070E-08
  1.6130000E-02   -1.9936262E-08
  1.6164999E-02   -3.1986009E-08
  1.6200000E-02   -3.9614125E-08
  1.6235000E-02   -4.1986723E-08
  1.6270000E-02   -4.9883365E-08
  1.6305000E-02   -5.7951695E-08
  1.6340001E-02   -6.2615719E-08
  1.6375000E-02   -6.7582228E-08
  1.6410001E-02   -7.1746655E-08
  1.6445000E-02   -7.8542335E-08
  1.6480001E-02   -8.9099004E-08
  1.6515000E-02   -9.3365536E-08
  1.6550001E-02   -9.4429616E-08
  1.6585000E-02   -1.0425945E-07
  1.6620001E-02   -1.1394098E-07
  1.6655000E-02   -1.1401160E-07
  1.6690001E-02   -1.1721926E-07
  1.6725000E-02   -1.2809146E-07
  1.6759999E-02   -1.3252986E-07
  1.6795000E-02   -1.2996810E-07
  1.6829999E-02   -1.3356664E-07
  1.6865000E-02   -1.4193678E-07
  1.6899999E-02   -1.4498902E-07
  1.6935000E-02   -1.4591026E-07
  1.6969999E-02   -1.5077603E-07
  1.7005000E-02   -1.5436697E-07
  1.7039999E-02   -1.5479634E-07
  1.7075000E-02   -1.5753753E-07
  1.7109999E-02   -1.5979590E-07
  1.7145000E-02   -1.5782805E-07
  1.7180000E-02   -1.5679015E-07
  1.7215000E-02   -1.5677475E-07
  1.7250000E-02   -1.5496722E-07
  1.7285001E-02   -1.5558635E-07
  1.7320000E-02   -1.5660400E-07
  1.7355001E-02   -1.5338186E-07
  1.7390000E-02   -1.5194921E-07
  1.7425001E-02   -1.5117966E-07
  1.7460000E-02   -1.4429804E-07
  1.7495001E-02   -1.4033266E-07
  1.7530000E-02   -1.4175296E-07
  1.7565001E-02   -1.3507163E-07
  1.7600000E-02   -1.2495441E-07
  1.7635001E-02   -1.2259362E-07
  1.7670000E-02   -1.1872860E-07
  1.7704999E-02   -1.1059439E-07
  1.7740000E-02   -1.0684580E-07
  1.7774999E-02   -1.0180229E-07
  1.7810000E-02   -9.1798164E-08
  1.7844999E-02   -8.5184638E-08
  1.7880000E-02   -8.0567773E-08
  1.7914999E-02   -7.3566383E-08
  1.7950000E-02   -6.5850514E-08
  1.7984999E-02   -5.4884161E-08
  1.8020000E-02   -4.3845930E-08
  1.8054999E-02   -3.9205787E-08
  1.8090000E-02   -3.1923506E-08
  1.8124999E-02   -1.8623998E-08
  1.8160000E-02   -1.2135235E-08
  1.8195000E-02   -9.3831583E-09
  1.8230001E-02    1.8323782E-09
  1.8265000E-02    1.4575419E-08
  1.8300001E-02    2.1185697E-08
  1.8335000E-02    2.7740271E-08
  1.8370001E-02    3.7371283E-08
  1.8405000E-02    4.7748209E-08
  1.8440001E-02    5.7213743E-08
  1.8475000E-02    6.4700565E-08
  1.8510001E-02    7.1707589E-08
  1.8545000E-02    7.8672656E-08
  1.8580001E-02    8.4955865E-08
  1.8615000E-02    9.4305058E-08
  1.8650001E-02    1.0574040E-07
  1.8685000E-02    1.1201453E-07
  1.8719999E-02    1.1489769E-07
  1.8755000E-02    1.2089671E-07
  1.8789999E-02    1.2921370E-07
  1.8825000E-02    1.3670724E-07
  1.8859999E-02    1.4138035E-07
  1.8895000E-02    1.4446736E-07
  1.8929999E-02    1.5081504E-07
  1.8965000E-02    1.5748620E-07
  1.8999999E-02    1.5936867E-07
  1.9035000E-02    1.6305106E-07
  1.9069999E-02    1.7034968E-07
  1.9105000E-02    1.7228781E-07
  1.9140000E-02    1.7094693E-07
  1.9175000E-02    1.7393664E-07
  1.9210000E-02    1.7844805E-07
  1.9245001E-02    1.8097261E-07
  1.9280000E-02    1.8071650E-07
  1.9315001E-02    1.7781188E-07
  1.9350000E-02    1.7787777E-07
  1.9385001E-02    1.8050410E-07
  1.9420000E-02    1.7885883E-07
  1.9455001E-02    1.7755680E-07
  1.9490000E-02    1.7996098E-07
  1.9525001E-02    1.7723903E-07
  1.9560000E-02    1.7110602E-07
  1.9595001E-02    1.6959476E-07
  1.9630000E-02    1.6742139E-07
  1.9664999E-02    1.6219447E-07
  1.9700000E-02    1.5903440E-07
  1.9734999E-02    1.5419185E-07
  1.9770000E-02    1.4665699E-07
  1.9804999E-02    1.4370112E-07
  1.9840000E-02    1.4181084E-07
  1.9874999E-02    1.3395271E-07
  1.9910000E-02    1.2515461E-07
  1.9944999E-02    1.1902951E-07
  1.9980000E-02    1.1168441E-07
  2.0014999E-02    1.0422948E-07
  2.0050000E-02    9.9784550E-08
  2.0085000E-02    9.3432554E-08
  2.0120000E-02    8.1180161E-08
  2.0155000E-02    7.0143678E-08
  2.0190001E-02    6.5286386E-08
  2.0225000E-02    5.8757077E-08
  2.0260001E-02    4.7874405E-08
  2.0295000E-02    4.1665903E-08
  2.0330001E-02    3.8771265E-08
  2.0365000E-02    3.0179191E-08
  2.0400001E-02    2.0623929E-08
  2.0435000E-02    1.6291750E-08
  2.0470001E-02    1.1014540E-08
  2.0505000E-02    2.3265496E-09
  2.0540001E-02   -6.0533059E-09
  2.0575000E-02   -1.5974200E-08
  2.0609999E-02   -2.6697860E-08
  2.0645000E-02   -3.1545998E-08
  2.0679999E-02   -3.4736210E-08
  2.0715000E-02   -4.8657039E-08
  2.0749999E-02   -6.9665553E-08
  2.0785000E-02   -8.3792436E-08
  2.0819999E-02   -9.6429488E-08
  2.0855000E-02   -1.2077454E-07
  2.0889999E-02   -1.4822659E-07
  2.0925000E-02   -1.7306213E-07
  2.0959999E-02   -2.1110299E-07
  2.0995000E-02   -2.5968689E-07
  2.1029999E-02   -3.0215017E-07
  2.1065000E-02   -3.5314832E-07
  2.1100000E-02   -4.2714609E-07
  2.1135001E-02   -5.0795802E-07
  2.1170000E-02   -5.9717246E-07
  2.1205001E-02   -7.1351678E-07
  2.1240000E-02   -8.4859295E-07
  2.1275001E-02   -9.9784484E-07
  2.1310000E-02   -1.1812688E-06
  2.1345001E-02   -1.4017512E-06
  2.1380000E-02   -1.6547897E-06
  2.1415001E-02   -1.9569975E-06
  2.1450000E-02   -2.3155760E-06
  2.1485001E-02   -2.7262081E-06
  2.1520000E-02   -3.2090313E-06
  2.1555001E-02   -3.7897248E-06
  2.1590000E-02   -4.4690100E-06
  2.1624999E-02   -5.2492242E-06
  2.1660000E-02   -6.1593237E-06
  2.1694999E-02   -7.2296411E-06
  2.1730000E-02   -8.4705389E-06
  2.1764999E-02   -9.9021763E-06
  2.1800000E-02   -1.1570743E-05
  2.1834999E-02   -1.3505501E-05
  2.1870000E-02   -1.5719586E-05
  2.1904999E-02   -1.8268314E-05
  2.1940000E-02   -2.1222024E-05
  2.1974999E-02   -2.4608849E-05
  2.2010000E-02   -2.8469023E-05
  2.2045000E-02   -3.2890621E-05
  2.2080000E-02   -3.7948033E-05
  2.2115000E-02   -4.3703971E-05
  2.2150001E-02   -5.0254072E-05
  2.2185000E-02   -5.7693152E-05
  2.2220001E-02   -6.6107605E-05
  2.2255000E-02   -7.5623255E-05
  2.2290001E-02   -8.6380867E-05
  2.2325000E-02   -9.8500954E-05
  2.2360001E-02   -1.1212476E-04
  2.2395000E-02   -1.2742373E-04
  2.2430001E-02   -1.4456382E-04
  2.2465000E-02   -1.6372456E-04
  2.2500001E-02   -1.8512114E-04
  2.2535000E-02   -2.0896793E-04
  2.2569999E-02   -2.3547090E-04
  2.2605000E-02   -2.6487478E-04
  2.2639999E-02   -2.9745849E-04
  2.2675000E-02   -3.3348467E-04
  2.2709999E-02   -3.7321751E-04
  2.2745000E-02   -4.1696825E-04
  2.2779999E-02   -4.6505939E-04
  2.2815000E-02   -5.1779259E-04
  2.2849999E-02   -5.7549949E-04
  2.2885000E-02   -6.3854520E-04
  2.2919999E-02   -7.0727326E-04
  2.2955000E-02   -7.8202627E-04
  2.2990000E-02   -8.6317846E-04
  2.3025000E-02   -9.5109054E-04
  2.3060000E-02   -1.0461063E-03
  2.3095001E-02   -1.1485944E-03
  2.3130000E-02   -1.2589149E-03
  2.3165001E-02   -1.3773877E-03
  2.3200000E-02   -1.5043307E-03
  2.3235001E-02   -1.6400595E-03
  2.3270000E-02   -1.7848437E-03
  2.3305001E-02   -1.9389209E-03
  2.3340000E-02   -2.1025147E-03
  2.3375001E-02   -2.2758050E-03
  2.3410000E-02   -2.4589084E-03
  2.3445001E-02   -2.6518991E-03
  2.3480000E-02   -2.8548110E-03
  2.3514999E-02   -3.0676068E-03
  2.3550000E-02   -3.2901673E-03
  2.3584999E-02   -3.5223186E-03
  2.3620000E-02   -3.7638163E-03
  2.3654999E-02   -4.0143114E-03
  2.3690000E-02   -4.2733718E-03
  2.3724999E-02   -4.5405054E-03
  2.3760000E-02   -4.8151026E-03
  2.3794999E-02   -5.0964397E-03
  2.3830000E-02   -5.3837253E-03
  2.3864999E-02   -5.6760614E-03
  2.3900000E-02   -5.9724231E-03
  2.3934999E-02   -6.2717111E-03
  2.3970000E-02   -6.5727350E-03
  2.4005000E-02   -6.8741771E-03
  2.4040001E-02   -7.1746376E-03
  2.4075000E-02   -7.4726548E-03
  2.4110001E-02   -7.7666454E-03
  2.4145000E-02   -8.0549484E-03
  2.4180001E-02   -8.3358707E-03
  2.4215000E-02   -8.6076465E-03
  2.4250001E-02   -8.8684354E-03
  2.4285000E-02   -9.1163749E-03
  2.4320001E-02   -9.3496051E-03
  2.4355000E-02   -9.5662260E-03
  2.4390001E-02   -9.7643258E-03
  2.4425000E-02   -9.9420333E-03
  2.4460001E-02   -1.0097506E-02
  2.4495000E-02   -1.0228953E-02
  2.4529999E-02   -1.0334643E-02
  2.4565000E-02   -1.0412929E-02
  2.4599999E-02   -1.0462250E-02
  2.4635000E-02   -1.0481170E-02
  2.4669999E-02   -1.0468392E-02
  2.4705000E-02   -1.0422744E-02
  2.4739999E-02   -1.0343222E-02
  2.4775000E-02   -1.0228993E-02
  2.4809999E-02   -1.0079416E-02
  2.4845000E-02   -9.8940432E-03
  2.4879999E-02   -9.6726334E-03
  2.4915000E-02   -9.4151516E-03
  2.4950000E-02   -9.1217905E-03
  2.4985000E-02   -8.7929750E-03
  2.5020000E-02   -8.4293475E-03
  2.5055001E-02   -8.0317874E-03
  2.5090000E-02   -7.6013980E-03
  2.5125001E-02   -7.1394965E-03
  2.5160000E-02   -6.6476185E-03
  2.5195001E-02   -6.1275284E-03
  2.5230000E-02   -5.5811787E-03
  2.5265001E-02   -5.0106999E-03
  2.5300000E-02   -4.4184085E-03
  2.5335001E-02   -3.8067743E-03
  2.5370000E-02   -3.1784016E-03
  2.5405001E-02   -2.5360310E-03
  2.5440000E-02   -1.8825037E-03
  2.5474999E-02   -1.2207328E-03
  2.5510000E-02   -5.5370480E-04
  2.5544999E-02    1.1555942E-04
  2.5580000E-02    7.8404235E-04
  2.5614999E-02    1.4487196E-03
  2.5650000E-02    2.1065848E-03
  2.5684999E-02    2.7547057E-03
  2.5720000E-02    3.3902247E-03
  2.5754999E-02    4.0103607E-03
  2.5790000E-02    4.6124617E-03
  2.5824999E-02    5.1940121E-03
  2.5860000E-02    5.7526408E-03
  2.5895000E-02    6.2861508E-03
  2.5930000E-02    6.7925388E-03
  2.5965000E-02    7.2699734E-03
  2.6000001E-02    7.7168294E-03
  2.6035000E-02    8.1317108E-03
  2.6070001E-02    8.5134320E-03
  2.6105000E-02    8.8610314E-03
  2.6140001E-02    9.1737714E-03
  2.6175000E-02    9.4511425E-03
  2.6210001E-02    9.6928626E-03
  2.6245000E-02    9.8988647E-03
  2.6280001E-02    1.0069284E-02
  2.6315000E-02    1.0204471E-02
  2.6350001E-02    1.0304982E-02
  2.6385000E-02    1.0371557E-02
  2.6419999E-02    1.0405100E-02
  2.6455000E-02    1.0406688E-02
  2.6489999E-02    1.0377549E-02
  2.6525000E-02    1.0319025E-02
  2.6559999E-02    1.0232585E-02
  2.6595000E-02    1.0119814E-02
  2.6629999E-02    9.9823680E-03
  2.6665000E-02    9.8219635E-03
  2.6699999E-02    9.6404012E-03
  2.6735000E-02    9.4395084E-03
  2.6769999E-02    9.2211086E-03
  2.6805000E-02    8.9870580E-03
  2.6839999E-02    8.7392200E-03
  2.6875000E-02    8.4794210E-03
  2.6910000E-02    8.2094530E-03
  2.6945001E-02    7.9310909E-03
  2.6980000E-02    7.6460382E-03