 -4.8000002E-03    1.0000000E-24
 -4.7650002E-03    1.0000002E-24
 -4.7300002E-03    1.0000001E-24
 -4.6950001E-03    1.0000000E-24
 -4.6600001E-03    1.0000002E-24
 -4.6250001E-03    1.0000002E-24
 -4.5900000E-03    1.0000002E-24
 -4.5550000E-03    1.0000000E-24
 -4.5200000E-03    1.0000000E-24
 -4.4849999E-03    1.0000002E-24
 -4.4499999E-03    1.0000002E-24
 -4.4149999E-03    9.9999972E-25
 -4.3799998E-03    1.0000001E-24
 -4.3449998E-03    1.0000003E-24
 -4.3100002E-03    1.0000001E-24
 -4.2750002E-03    1.0000002E-24
 -4.2400002E-03    1.0000002E-24
 -4.2050001E-03    9.9999982E-25
 -4.1700001E-03    1.0000002E-24
 -4.1350001E-03    1.0000001E-24
 -4.1000000E-03    9.9999953E-25
 -4.0650000E-03    1.0000002E-24
 -4.0300000E-03    1.0000005E-24
 -3.9949999E-03    9.9999943E-25
 -3.9599999E-03    9.9999933E-25
 -3.9249999E-03    1.0000004E-24
 -3.8900001E-03    1.0000001E-24
 -3.8550000E-03    9.9999982E-25
 -3.8200000E-03    1.0000005E-24
 -3.7849999E-03    1.0000005E-24
 -3.7499999E-03    9.9999982E-25
 -3.7150001E-03    1.0000003E-24
 -3.6800001E-03    1.0000006E-24
 -3.6450000E-03    9.9999963E-25
 -3.6100000E-03    9.9999963E-25
 -3.5750000E-03    1.0000005E-24
 -3.5399999E-03    1.0000000E-24
 -3.5049999E-03    9.9999953E-25
 -3.4700001E-03    1.0000004E-24
 -3.4350001E-03    1.0000005E-24
 -3.4000000E-03    9.9999953E-25
 -3.3650000E-03    9.9999963E-25
 -3.3300000E-03    1.0000006E-24
 -3.2949999E-03    1.0000002E-24
 -3.2599999E-03    9.9999943E-25
 -3.2250001E-03    9.9999972E-25
 -3.1900001E-03    1.0000004E-24
 -3.1550000E-03    1.0000001E-24
 -3.1200000E-03    1.0000001E-24
 -3.0850000E-03    1.0000008E-24
 -3.0499999E-03    1.0000005E-24
 -3.0149999E-03    9.9999963E-25
 -2.9800001E-03    9.9999982E-25
 -2.9450001E-03    1.0000004E-24
 -2.9100000E-03    9.9999982E-25
 -2.8750000E-03    9.9999963E-25
 -2.8400000E-03    1.0000002E-24
 -2.8049999E-03    1.0000003E-24
 -2.7699999E-03    9.9999982E-25
 -2.7350001E-03    1.0000001E-24
 -2.7000001E-03    1.0000009E-24
 -2.6650000E-03    1.0000000E-24
 -2.6300000E-03    9.9999913E-25
 -2.5950000E-03    9.9999953E-25
 -2.5599999E-03    1.0000005E-24
 -2.5249999E-03    1.0000007E-24
 -2.4900001E-03    1.0000007E-24
 -2.4550001E-03    1.0000009E-24
 -2.4200000E-03    1.0000000E-24
 -2.3850000E-03    9.9999913E-25
 -2.3500000E-03    9.9999933E-25
 -2.3149999E-03    9.9999933E-25
 -2.2799999E-03    9.9999963E-25
 -2.2450001E-03    1.0000006E-24
 -2.2100001E-03    1.0000009E-24
 -2.1750000E-03    9.9999982E-25
 -2.1400000E-03    9.9999913E-25
 -2.1050000E-03    9.9999982E-25
 -2.0699999E-03    1.0000009E-24
 -2.0349999E-03    1.0000004E-24
 -2.0000001E-03    9.9999982E-25
 -1.9650001E-03    1.0000008E-24
 -1.9300000E-03    1.0000012E-24
 -1.8950000E-03    9.9999972E-25
 -1.8600000E-03    9.9999933E-25
 -1.8250000E-03    1.0000002E-24
 -1.7900000E-03    1.0000002E-24
 -1.7550000E-03    9.9999943E-25
 -1.7199999E-03    9.9999963E-25
 -1.6850000E-03    1.0000000E-24
 -1.6500000E-03    1.0000005E-24
 -1.6150000E-03    1.0000000E-24
 -1.5800000E-03    9.9999884E-25
 -1.5450000E-03    9.9999953E-25
 -1.5100000E-03    1.0000007E-24
 -1.4750001E-03    1.0000003E-24
 -1.4400000E-03    9.9999972E-25
 -1.4050000E-03    1.0000007E-24
 -1.3700000E-03    1.0000005E-24
 -1.3350000E-03    9.9999943E-25
 -1.3000000E-03    9.9999972E-25
 -1.2650000E-03    1.0000003E-24
 -1.2300001E-03    1.0000002E-24
 -1.1950000E-03    1.0000007E-24
 -1.1600000E-03    1.0000002E-24
 -1.1250000E-03    9.9999923E-25
 -1.0900000E-03    1.0000001E-24
 -1.0550000E-03    1.0000010E-24
 -1.0200000E-03    9.9999943E-25
 -9.8500005E-04    9.9999893E-25
 -9.5000002E-04    1.0000004E-24
 -9.1499998E-04    1.0000002E-24
 -8.8000001E-04    9.9999963E-25
 -8.4499997E-04    1.0000003E-24
 -8.1000000E-04    1.0000004E-24
 -7.7500002E-04    1.0000004E-24
 -7.3999999E-04    9.9999953E-25
 -7.0500001E-04    9.9999903E-25
 -6.6999998E-04    1.0000009E-24
 -6.3500000E-04    1.0000016E-24
 -6.0000003E-04    9.9999963E-25
 -5.6499999E-04    9.9999923E-25
 -5.3000002E-04    1.0000008E-24
 -4.9499999E-04    9.9999992E-25
 -4.6000001E-04    9.9999923E-25
 -4.2500001E-04    1.0000008E-24
 -3.9000000E-04    1.0000006E-24
 -3.5500000E-04    9.9999903E-25
 -3.1999999E-04    9.9999953E-25
 -2.8499999E-04    1.0000020E-24
 -2.5000001E-04    1.0000008E-24
 -2.1499999E-04    9.9999677E-25
 -1.8000000E-04    1.0000009E-24
 -1.4500000E-04    1.0000022E-24
 -1.1000000E-04    9.9999322E-25
 -7.5000004E-05    9.9999065E-25
 -3.9999999E-05    1.0000170E-24
 -4.9999999E-06    1.0000111E-24
  2.9999999E-05    9.9996817E-25
  6.5000000E-05    9.9999578E-25
  9.9999997E-05    1.0000404E-24
  1.3499999E-04    9.9996294E-25
  1.7000000E-04    9.9989283E-25
  2.0500000E-04    1.0000718E-24
  2.3999999E-04    1.0001699E-24
  2.7500000E-04    9.9984097E-25
  3.1000000E-04    1.0000434E-24
  3.4500001E-04    1.0003567E-24
  3.8000001E-04    1.0001302E-24
  4.1499999E-04    9.9962541E-25
  4.4999999E-04    1.0000715E-24
  4.8500000E-04    1.0009405E-24
  5.2000000E-04    1.0001131E-24
  5.5499998E-04    1.0002877E-24
  5.9000001E-04    1.0000101E-24
  6.2499999E-04    9.9944387E-25
  6.6000002E-04    1.0009643E-24
  6.9500000E-04    1.0013860E-24
  7.3000003E-04    9.9843058E-25
  7.6500000E-04    9.9752300E-25
  7.9999998E-04    9.9897322E-25
  8.3500001E-04    1.0052927E-24
  8.6999999E-04    9.9860186E-25
  9.0500002E-04    9.7823998E-25
  9.4000000E-04    1.0030780E-24
  9.7499997E-04    1.0148133E-24
  1.0100000E-03    9.7659550E-25
  1.0450000E-03    9.8367149E-25
  1.0800000E-03    1.0413436E-24
  1.1150000E-03    1.0489109E-24
  1.1500000E-03    9.4236052E-25
  1.1849999E-03    9.5733911E-25
  1.2200000E-03    1.0757573E-24
  1.2550000E-03    1.0026653E-24
  1.2900000E-03    7.9585120E-25
  1.3250000E-03    9.3317246E-25
  1.3600000E-03    1.3302208E-24
  1.3950000E-03    1.0302828E-24
  1.4299999E-03    6.3598987E-25
  1.4650000E-03    1.1806943E-24
  1.5000000E-03    1.5693586E-24
  1.5350000E-03    8.3372392E-25
  1.5700000E-03   -5.4028812E-25
  1.6050000E-03    1.2268544E-24
  1.6400000E-03    2.4829470E-24
  1.6749999E-03    5.3901451E-25
  1.7100000E-03   -1.8098035E-24
  1.7450000E-03    1.7740657E-24
  1.7800000E-03    6.6829448E-24
  1.8150000E-03    3.0718912E-25
  1.8500000E-03   -5.1775899E-24
  1.8850000E-03    3.9653111E-24
  1.9200000E-03    1.0235964E-23
  1.9550000E-03    2.1385719E-24
  1.9900000E-03   -1.1352532E-23
  2.0250001E-03   -6.4050954E-24
  2.0600001E-03    1.7828785E-23
  2.0949999E-03    2.0948102E-23
  2.1299999E-03   -1.6067762E-23
  2.1650000E-03   -3.3635678E-23
  2.2000000E-03    2.1207363E-23
  2.2350000E-03    5.9261352E-23
  2.2700001E-03   -1.9633738E-23
  2.3050001E-03   -1.0253747E-22
  2.3399999E-03   -5.0922829E-24
  2.3749999E-03    1.7670066E-22
  2.4100000E-03    6.0376618E-23
  2.4450000E-03   -2.6270398E-22
  2.4800000E-03   -1.4767110E-22
  2.5150001E-03    3.4964691E-22
  2.5500001E-03    3.0588908E-22
  2.5849999E-03   -4.9969666E-22
  2.6199999E-03   -5.4962209E-22
  2.6550000E-03    5.4544847E-22
  2.6900000E-03    9.4202967E-22
  2.7250000E-03   -4.9697348E-22
  2.7600001E-03   -1.3747838E-21
  2.7950001E-03    2.1401024E-22
  2.8299999E-03    2.0225343E-21
  2.8649999E-03    4.0639435E-22
  2.9000000E-03   -2.6105127E-21
  2.9350000E-03   -1.4297555E-21
  2.9700000E-03    3.5078799E-21
  3.0050001E-03    3.2406026E-21
  3.0400001E-03   -3.6054791E-21
  3.0749999E-03   -5.5935169E-21
  3.1099999E-03    3.3371398E-21
  3.1450000E-03    8.7442240E-21
  3.1800000E-03   -1.5744680E-21
  3.2150000E-03   -1.2499260E-20
  3.2500001E-03   -2.3684701E-21
  3.2850001E-03    1.5522089E-20
  3.3199999E-03    8.8815828E-21
  3.3549999E-03   -1.8393972E-20
  3.3900000E-03   -1.9276737E-20
  3.4250000E-03    1.5833012E-20
  3.4600000E-03    3.3209285E-20
  3.4950001E-03   -6.3825288E-21
  3.5300001E-03   -4.9434863E-20
  3.5649999E-03   -1.3206338E-20
  3.5999999E-03    6.3641040E-20
  3.6350000E-03    4.6565667E-20
  3.6700000E-03   -6.9156629E-20
  3.7050000E-03   -9.4281891E-20
  3.7400001E-03    5.8290455E-20
  3.7750001E-03    1.5955520E-19
  3.8099999E-03   -1.3632284E-20
  3.8449999E-03   -2.2913229E-19
  3.8800000E-03   -7.1409093E-20
  3.9149998E-03    2.8471549E-19
  3.9499998E-03    2.0930861E-19
  3.9849998E-03   -2.9807862E-19
  4.0199999E-03   -4.1103362E-19
  4.0549999E-03    2.2141089E-19
  4.0899999E-03    6.5970994E-19
  4.1250000E-03    9.2599178E-21
  4.1600000E-03   -8.9619943E-19
  4.1950000E-03   -4.2800605E-19
  4.2300001E-03    1.0542647E-18
  4.2650001E-03    1.1212037E-18
  4.3000001E-03   -9.5771705E-19
  4.3350002E-03   -2.0485513E-18
  4.3700002E-03    4.2598499E-19
  4.4049998E-03    3.1275422E-18
  4.4399998E-03    7.0539729E-19
  4.4749998E-03   -4.1446162E-18
  4.5099999E-03   -2.6893536E-18
  4.5449999E-03    4.7479183E-18
  4.5799999E-03    5.6511325E-18
  4.6150000E-03   -4.2958628E-18
  4.6500000E-03   -9.4088635E-18
  4.6850001E-03    2.2523408E-18
  4.7200001E-03    1.3714837E-17
  4.7550001E-03    2.3095433E-18
  4.7900002E-03   -1.7441652E-17
  4.8250002E-03   -9.8024385E-18
  4.8600002E-03    1.9194263E-17
  4.8949998E-03    2.0320901E-17
  4.9299998E-03   -1.7279166E-17
  4.9649999E-03   -3.3570629E-17
  4.9999999E-03    8.9226426E-18
  5.0349999E-03    4.7426533E-17
  5.0700000E-03    7.6982970E-18
  5.1050000E-03   -5.9286734E-17
  5.1400000E-03   -3.4829403E-17
  5.1750001E-03    6.3584944E-17
  5.2100001E-03    7.1581325E-17
  5.2450001E-03   -5.5209660E-17
  5.2800002E-03   -1.1503758E-16
  5.3150002E-03    2.7254344E-17
  5.3500002E-03    1.5946592E-16
  5.3849998E-03    2.5398761E-17
  5.4199998E-03   -1.9575470E-16
  5.4549999E-03   -1.0560763E-16
  5.4899999E-03    2.0914342E-16
  5.5249999E-03    2.1083003E-16
  5.5600000E-03   -1.8496234E-16
  5.5950000E-03   -3.3244500E-16
  5.6300000E-03    1.0733770E-16
  5.6650001E-03    4.5087437E-16
  5.7000001E-03    3.3628439E-17
  5.7350001E-03   -5.3999547E-16
  5.7700002E-03   -2.3882870E-16
  5.8050002E-03    5.6760419E-16
  5.8400002E-03    5.0233898E-16
  5.8749998E-03   -4.9641716E-16
  5.9099998E-03   -7.9083469E-16
  5.9449999E-03    3.0230860E-16
  5.9799999E-03    1.0659365E-15
  6.0149999E-03    3.9855577E-17
  6.0500000E-03   -1.2622308E-15
  6.0850000E-03   -5.1565629E-16
  6.1200000E-03    1.3156841E-15
  6.1550001E-03    1.0954865E-15
  6.1900001E-03   -1.1629726E-15
  6.2250001E-03   -1.7196945E-15
  6.2600002E-03    7.5523782E-16
  6.2950002E-03    2.2957054E-15
  6.3299998E-03   -8.0073697E-17
  6.3649998E-03   -2.7103811E-15
  6.3999998E-03   -8.1941491E-16
  6.4349999E-03    2.8634696E-15
  6.4699999E-03    1.8847544E-15
  6.5049999E-03   -2.6579801E-15
  6.5400000E-03   -3.0124775E-15
  6.5750000E-03    2.0164255E-15
  6.6100000E-03    4.0324748E-15
  6.6450001E-03   -9.5461291E-16
  6.6800001E-03   -4.7897227E-15
  6.7150001E-03   -4.6327625E-16
  6.7500002E-03    5.1419787E-15
  6.7850002E-03    2.1445553E-15
  6.8199998E-03   -4.9473111E-15
  6.8549998E-03   -3.9132062E-15
  6.8899998E-03    4.1583609E-15
  6.9249999E-03    5.6142157E-15
  6.9599999E-03   -2.7297500E-15
  6.9949999E-03   -7.0236108E-15
  7.0300000E-03    7.2799020E-16
  7.0650000E-03    7.9563168E-15
  7.1000000E-03    1.7344852E-15
  7.1350001E-03   -8.2486067E-15
  7.1700001E-03   -4.5108812E-15
  7.2050001E-03    7.6974178E-15
  7.2400002E-03    7.3588588E-15
  7.2750002E-03   -6.2221278E-15
  7.3099998E-03   -1.0010894E-14
  7.3449998E-03    3.7312555E-15
  7.3799998E-03    1.2031907E-14
  7.4149999E-03   -4.3398289E-16
  7.4499999E-03   -1.3087564E-14
  7.4850000E-03   -3.5194672E-15
  7.5200000E-03    1.2654655E-14
  7.5550000E-03    7.4673739E-15
  7.5900001E-03   -1.0560470E-14
  7.6250001E-03   -1.0720906E-14
  7.6600001E-03    6.8024263E-15
  7.6950002E-03    1.2298984E-14
  7.7300002E-03   -1.9097385E-15
  7.7650002E-03   -1.1198020E-14
  7.7999998E-03   -2.7093602E-15
  7.8349998E-03    7.1210060E-15
  7.8699999E-03    5.4393635E-15
  7.9049999E-03   -2.8880729E-16
  7.9399999E-03   -4.1096137E-15
  7.9750000E-03   -7.5875272E-15
  8.0100000E-03   -2.8781678E-15
  8.0450000E-03    1.3640645E-14
  8.0800001E-03    1.6206785E-14
  8.1150001E-03   -1.3703860E-14
  8.1500001E-03   -3.4505737E-14
  8.1850002E-03    3.2686597E-15
  8.2200002E-03    5.3660486E-14
  8.2550002E-03    2.1172190E-14
  8.2900003E-03   -6.6801165E-14
  8.3250003E-03   -6.0404000E-14
  8.3600003E-03    6.5223380E-14
  8.3950004E-03    1.1142382E-13
  8.4300004E-03   -3.9189240E-14
  8.4650004E-03   -1.6533823E-13
  8.5000005E-03   -1.8259281E-14
  8.5349996E-03    2.0849881E-13
  8.5699996E-03    1.0951565E-13
  8.6049996E-03   -2.2287615E-13
  8.6399997E-03   -2.2821049E-13
  8.6749997E-03    1.9067593E-13
  8.7099997E-03    3.5923079E-13
  8.7449998E-03   -9.7201950E-14
  8.7799998E-03   -4.7764613E-13
  8.8149998E-03   -6.3290295E-14
  8.8499999E-03    5.5222027E-13
  8.8849999E-03    2.8439791E-13
  8.9199999E-03   -5.4864609E-13
  8.9550000E-03   -5.4279536E-13
  8.9900000E-03    4.3774755E-13
  9.0250000E-03    7.9883241E-13
  9.0600001E-03   -2.0365693E-13
  9.0950001E-03   -1.0005233E-12
  9.1300001E-03   -1.4921018E-13
  9.1650002E-03    1.0922983E-12
  9.2000002E-03    5.9430125E-13
  9.2350002E-03   -1.0215047E-12
  9.2700003E-03   -1.0802263E-12
  9.3050003E-03    7.4900568E-13
  9.3400003E-03    1.5319862E-12
  9.3750004E-03   -2.6214911E-13
  9.4100004E-03   -1.8596461E-12
  9.4450004E-03   -4.1367287E-13
  9.4799995E-03    1.9765745E-12
  9.5149996E-03    1.2163268E-12
  9.5499996E-03   -1.8146948E-12
  9.5849996E-03   -2.0550341E-12
  9.6199997E-03    1.3316559E-12
  9.6549997E-03    2.8137653E-12
  9.6899997E-03   -5.2209685E-13
  9.7249998E-03   -3.3581716E-12
  9.7599998E-03   -5.6443321E-13
  9.7949998E-03    3.5597747E-12
  9.8299999E-03    1.8207580E-12
  9.8649999E-03   -3.3246424E-12
  9.8999999E-03   -3.0988415E-12
  9.9350000E-03    2.6045644E-12
  9.9700000E-03    4.2223321E-12
  1.0005000E-02   -1.4043866E-12
  1.0040000E-02   -4.9896103E-12
  1.0075000E-02   -1.8839623E-13
  1.0110000E-02    5.2102394E-12
  1.0145000E-02    1.9948721E-12
  1.0180000E-02   -4.7567011E-12
  1.0215000E-02   -3.7780491E-12
  1.0250000E-02    3.5810666E-12
  1.0285000E-02    5.2694685E-12
  1.0320000E-02   -1.7164833E-12
  1.0355000E-02   -6.1639339E-12
  1.0390000E-02   -6.6474463E-13
  1.0425000E-02    6.1850620E-12
  1.0460000E-02    3.2220650E-12
  1.0495000E-02   -5.2166136E-12
  1.0530000E-02   -5.5529357E-12
  1.0565000E-02    3.3289153E-12
  1.0600000E-02    7.3088913E-12
  1.0635000E-02   -6.8936702E-13
  1.0670000E-02   -8.1597029E-12
  1.0705000E-02   -2.4023368E-12
  1.0740000E-02    7.8095308E-12
  1.0775000E-02    5.4018829E-12
  1.0810000E-02   -6.2414943E-12
  1.0845000E-02   -7.6927700E-12
  1.0880000E-02    3.8316026E-12
  1.0915000E-02    8.9269599E-12
  1.0950000E-02   -1.0728439E-12
  1.0985000E-02   -9.0137602E-12
  1.1020000E-02   -1.6035775E-12
  1.1055000E-02    7.9221291E-12
  1.1090000E-02    3.6491903E-12
  1.1125000E-02   -5.8688414E-12
  1.1160000E-02   -4.4766174E-12
  1.1195000E-02    3.5526109E-12
  1.1230000E-02    3.9719317E-12
  1.1265000E-02   -1.7372252E-12
  1.1300000E-02   -2.5342636E-12
  1.1335000E-02    8.0236246E-13
  1.1370000E-02    5.8835499E-13
  1.1405000E-02   -1.0070157E-12
  1.1440000E-02    1.3478624E-12
  1.1475000E-02    2.5683017E-12
  1.1510000E-02   -2.3055388E-12
  1.1545000E-02   -4.9609665E-12
  1.1580000E-02    1.5430092E-12
  1.1615000E-02    6.9666699E-12
  1.1650000E-02    6.7652562E-13
  1.1685000E-02   -7.7579054E-12
  1.1720000E-02   -3.7397472E-12
  1.1755000E-02    6.9432567E-12
  1.1790000E-02    7.2174931E-12
  1.1825000E-02   -3.7276584E-12
  1.1860000E-02   -9.7371720E-12
  1.1895000E-02   -2.0038077E-12
  1.1930000E-02    9.1347693E-12
  1.1965000E-02    8.2309637E-12
  1.2000000E-02   -4.9160502E-12
  1.2035000E-02   -1.2519618E-11
  1.2070000E-02   -1.3339407E-12
  1.2105000E-02    1.4339563E-11
  1.2140000E-02    8.6977656E-12
  1.2175000E-02   -1.3248946E-11
  1.2210000E-02   -1.6554856E-11
  1.2245000E-02    7.7183459E-12
  1.2280000E-02    2.1861672E-11
  1.2315000E-02    1.3966197E-12
  1.2350000E-02   -2.1289255E-11
  1.2385000E-02   -9.4803800E-12
  1.2420000E-02    1.6147812E-11
  1.2455000E-02    1.3815059E-11
  1.2490000E-02   -9.6345839E-12
  1.2525000E-02   -1.5283143E-11
  1.2560000E-02    2.0800031E-12
  1.2595000E-02    1.3328712E-11
  1.2630000E-02    6.0586046E-12
  1.2665000E-02   -5.5099285E-12
  1.2700000E-02   -9.8571420E-12
  1.2735000E-02   -5.4370176E-12
  1.2770000E-02    6.3963461E-12
  1.2805000E-02    1.3488187E-11
  1.2840000E-02    1.0418075E-12
  1.2875000E-02   -1.6919214E-11
  1.2910000E-02   -8.9468146E-12
  1.2945000E-02    1.7540108E-11
  1.2980000E-02    1.8197272E-11
  1.3015000E-02   -1.3023386E-11
  1.3050000E-02   -2.6285122E-11
  1.3085000E-02    1.9670782E-12
  1.3120000E-02    2.7288193E-11
  1.3155000E-02    1.0547704E-11
  1.3190000E-02   -1.9880026E-11
  1.3225000E-02   -1.7850728E-11
  1.3260000E-02    9.7249084E-12
  1.3295000E-02    2.0725439E-11
  1.3330000E-02    1.2290050E-12
  1.3365000E-02   -2.0354855E-11
  1.3400000E-02   -1.3608323E-11
  1.3435000E-02    1.4594204E-11
  1.3470000E-02    2.5012430E-11
  1.3505000E-02   -1.6065251E-12
  1.3540000E-02   -2.8129393E-11
  1.3575000E-02   -1.1488656E-11
  1.3610000E-02    2.3090002E-11
  1.3645000E-02    1.8163812E-11
  1.3680000E-02   -1.5947316E-11
  1.3715000E-02   -1.8220633E-11
  1.3750000E-02    1.1916783E-11
  1.3785000E-02    1.6736298E-11
  1.3820000E-02   -8.0868107E-12
  1.3855000E-02   -1.0608783E-11
  1.3890000E-02    8.5216183E-12
  1.3925000E-02    5.4132816E-13
  1.3960000E-02   -1.9984228E-11
  1.3995000E-02    2.7900466E-12
  1.4030000E-02    3.8325884E-11
  1.4065000E-02    1.0256749E-11
  1.4100000E-02   -4.4759332E-11
  1.4135000E-02   -2.4532170E-11
  1.4170000E-02    4.2261483E-11
  1.4205000E-02    3.2308344E-11
  1.4240000E-02   -4.3663378E-11
  1.4275000E-02   -4.8019436E-11
  1.4310000E-02    3.7336061E-11
  1.4345000E-02    7.2770644E-11
  1.4380000E-02   -4.7521953E-13
  1.4415000E-02   -6.8359381E-11
  1.4450000E-02   -3.7204996E-11
  1.4485000E-02    3.3220184E-11
  1.4520000E-02    4.2929577E-11
  1.4555000E-02   -8.6802206E-12
  1.4590000E-02   -4.2308421E-11
  1.4625000E-02   -4.8771217E-12
  1.4660000E-02    6.1380054E-11
  1.4695000E-02    5.4241237E-11
  1.4730000E-02   -4.7603494E-11
  1.4765000E-02   -1.1025654E-10
  1.4800000E-02   -2.0551495E-11
  1.4835000E-02    1.0390754E-10
  1.4870000E-02    6.9024182E-11
  1.4905000E-02   -6.3177547E-11
  1.4940000E-02   -6.1167259E-11
  1.4975000E-02    6.6043428E-11
  1.5010000E-02    7.3767215E-11
  1.5045000E-02   -7.4445915E-11
  1.5080000E-02   -1.2670689E-10
  1.5115000E-02    1.7131550E-11
  1.5150000E-02    1.3231759E-10
  1.5185000E-02    5.4729561E-11
  1.5220000E-02   -6.7789239E-11
  1.5255000E-02   -5.8479131E-11
  1.5290000E-02    1.6006686E-11
  1.5325000E-02    2.3525766E-11
  1.5360000E-02   -7.8613470E-12
  1.5395000E-02   -7.4186959E-12
  1.5430000E-02   -2.8374085E-12
  1.5465000E-02   -9.9019248E-12
  1.5500000E-02    1.8533041E-11
  1.5535000E-02    5.1094937E-11
  1.5570000E-02    1.1592191E-13
  1.5605000E-02   -8.2168709E-11
  1.5640000E-02   -5.5891600E-11
  1.5675001E-02    5.5458312E-11
  1.5710000E-02    8.6825443E-11
  1.5745001E-02    1.6698493E-12
  1.5780000E-02   -5.9409665E-11
  1.5814999E-02   -1.9612697E-11
  1.5850000E-02    2.0065540E-11
  1.5884999E-02   -2.1563940E-11
  1.5920000E-02   -4.9288691E-11
  1.5954999E-02    2.7643741E-11
  1.5990000E-02    9.7566483E-11
  1.6024999E-02    2.8750377E-11
  1.6060000E-02   -8.1797472E-11
  1.6094999E-02   -6.6183510E-11
  1.6130000E-02    3.2211286E-11
  1.6164999E-02    4.5149540E-11
  1.6200000E-02   -4.0299136E-11
  1.6235000E-02   -6.0861524E-11
  1.6270000E-02    5.1899918E-11
  1.6305000E-02    1.1455453E-10
  1.6340001E-02   -1.9105877E-11
  1.6375000E-02   -1.4332700E-10
  1.6410001E-02   -2.7633460E-11
  1.6445000E-02    1.2930051E-10
  1.6480001E-02    4.8545452E-11
  1.6515000E-02   -1.1183647E-10
  1.6550001E-02   -7.5846412E-11
  1.6585000E-02    6.8316026E-11
  1.6620001E-02    8.8022645E-11
  1.6655000E-02   -1.6463934E-11
  1.6690001E-02   -8.1170147E-11
  1.6725000E-02   -3.7479308E-11
  1.6759999E-02    2.8197181E-11
  1.6795000E-02    5.6449113E-11
  1.6829999E-02    7.5272594E-11
  1.6865000E-02    1.6123287E-11
  1.6899999E-02   -1.5412462E-10
  1.6935000E-02   -1.6204356E-10
  1.6969999E-02    1.0854972E-10
  1.7005000E-02    2.2170457E-10
  1.7039999E-02   -3.2759823E-11
  1.7075000E-02   -1.7895510E-10
  1.7109999E-02    1.5845856E-11
  1.7145000E-02    1.3477409E-10
  1.7180000E-02   -1.1427665E-11
  1.7215000E-02   -1.0673176E-10
  1.7250000E-02   -8.6906402E-12
  1.7285001E-02    6.6366815E-11
  1.7320000E-02   -9.0526588E-12
  1.7355001E-02   -6.6224297E-11
  1.7390000E-02    4.3421284E-11
  1.7425001E-02    1.0952508E-10
  1.7460000E-02   -5.2010181E-11
  1.7495001E-02   -1.1167919E-10
  1.7530000E-02    1.0234916E-10
  1.7565001E-02    8.7131767E-11
  1.7600000E-02   -2.3030296E-10
  1.7635001E-02   -1.4183046E-10
  1.7670000E-02    3.1246677E-10
  1.7704999E-02    2.8577801E-10
  1.7740000E-02   -1.6847812E-10
  1.7774999E-02   -2.9115232E-10
  1.7810000E-02   -5.3700343E-11
  1.7844999E-02    1.0883110E-10
  1.7880000E-02    7.9169851E-11
  1.7914999E-02   -2.1992744E-11
  1.7950000E-02    3.5573385E-11
  1.7984999E-02    1.9444184E-10
  1.8020000E-02    1.8486766E-11
  1.8054999E-02   -2.7453201E-10
  1.8090000E-02   -7.3968068E-11
  1.8124999E-02    1.8574668E-10
  1.8160000E-02   -2.7630228E-11
  1.8195000E-02   -1.4334919E-10
  1.8230001E-02    4.3369842E-11
  1.8265000E-02    8.5216584E-11
  1.8300001E-02    1.6000917E-10
  1.8335000E-02    2.0717927E-10
  1.8370001E-02   -2.3485963E-10
  1.8405000E-02   -4.3343104E-10
  1.8440001E-02    1.3793207E-10
  1.8475000E-02    3.7562953E-10
  1.8510001E-02   -1.5370392E-11
  1.8545000E-02   -1.3860688E-10
  1.8580001E-02   -7.5363021E-11
  1.8615000E-02   -4.6339505E-11
  1.8650001E-02    1.9739445E-10
  1.8685000E-02    1.0725710E-10
  1.8719999E-02   -3.0353020E-10
  1.8755000E-02   -4.8184574E-11
  1.8789999E-02    3.4312031E-10
  1.8825000E-02    3.9606467E-11
  1.8859999E-02   -1.2829507E-10
  1.8895000E-02   -3.8455333E-11
  1.8929999E-02   -2.5132960E-10
  1.8965000E-02   -8.6385924E-12
  1.8999999E-02    5.0066673E-10
  1.9035000E-02    3.6503396E-12
  1.9069999E-02   -5.4922578E-10
  1.9105000E-02   -9.4281701E-12
  1.9140000E-02    4.5634743E-10
  1.9175000E-02    2.4867194E-10
  1.9210000E-02   -1.0049243E-10
  1.9245001E-02   -5.1448745E-10
  1.9280000E-02   -3.2204428E-10
  1.9315001E-02    5.5082572E-10
  1.9350000E-02    4.5665066E-10
  1.9385001E-02   -3.6772541E-10
  1.9420000E-02   -1.9983057E-10
  1.9455001E-02    1.8231056E-10
  1.9490000E-02   -1.5064588E-10
  1.9525001E-02   -1.3796667E-10
  1.9560000E-02    1.5018890E-10
  1.9595001E-02    3.4427721E-11
  1.9630000E-02    1.2949010E-10
  1.9664999E-02    2.2964701E-10
  1.9700000E-02   -1.6567511E-10
  1.9734999E-02   -2.2189388E-10
  1.9770000E-02   -3.7548128E-11
  1.9804999E-02   -1.9659493E-10
  1.9840000E-02    8.4800944E-11
  1.9874999E-02    4.3425571E-10
  1.9910000E-02   -1.7775222E-10
  1.9944999E-02   -4.2973469E-10
  1.9980000E-02    3.0197825E-10
  2.0014999E-02    4.1349399E-10
  2.0050000E-02   -4.2664438E-11
  2.0085000E-02   -9.8033526E-11
  2.0120000E-02   -2.4482050E-10
  2.0155000E-02   -3.8149259E-10
  2.0190001E-02   -3.8390836E-11
  2.0225000E-02    1.8440234E-10
  2.0260001E-02    3.1073402E-10
  2.0295000E-02    3.6173115E-10
  2.0330001E-02   -3.3938102E-10
  2.0365000E-02   -6.5916811E-10
  2.0400001E-02    3.3368083E-10
  2.0435000E-02    7.5505091E-10
  2.0470001E-02    3.7873548E-11
  2.0505000E-02   -3.5995451E-10
  2.0540001E-02   -5.7102356E-10
  2.0575000E-02   -5.1005866E-10
  2.0609999E-02    5.1259341E-10
  2.0645000E-02    8.3698581E-10
  2.0679999E-02   -1.8195043E-10
  2.0715000E-02   -4.5418150E-10
  2.0749999E-02    3.2352752E-11
  2.0785000E-02    1.5148144E-10
  2.0819999E-02    3.6521128E-10
  2.0855000E-02    7.4619415E-11
  2.0889999E-02   -8.3726825E-10
  2.0925000E-02   -3.8716563E-10
  2.0959999E-02    6.0907446E-10
  2.0995000E-02    1.7847981E-10
  2.1029999E-02   -1.0993875E-10
  2.1065000E-02    2.8404823E-10
  2.1100000E-02   -6.3757666E-11
  2.1135001E-02   -5.3148198E-11
  2.1170000E-02    4.0703535E-10
  2.1205001E-02   -3.7910453E-10
  2.1240000E-02   -6.6348738E-10
  2.1275001E-02    4.9478305E-10
  2.1310000E-02    4.0882991E-10
  2.1345001E-02   -3.7213355E-10
  2.1380000E-02    7.5847786E-11
  2.1415001E-02    7.5178523E-11
  2.1450000E-02   -4.9657617E-10
  2.1485001E-02   -7.8620395E-11
  2.1520000E-02    2.0709760E-10
  2.1555001E-02    1.6916453E-10
  2.1590000E-02    5.2884058E-10
  2.1624999E-02   -7.3677078E-11
  2.1660000E-02   -5.9005995E-10
  2.1694999E-02    6.3415695E-10
  2.1730000E-02    5.9254890E-10
  2.1764999E-02   -1.1212407E-09
  2.1800000E-02   -7.2237066E-10
  2.1834999E-02    5.3855148E-10
  2.1870000E-02    1.6278310E-11
  2.1904999E-02   -1.0671065E-10
  2.1940000E-02    7.7098111E-10
  2.1974999E-02    7.1521156E-10
  2.2010000E-02   -3.2705730E-11
  2.2045000E-02   -8.8354013E-10
  2.2080000E-02   -1.0726625E-09
  2.2115000E-02    2.8816388E-10
  2.2150001E-02    9.5814112E-10
  2.2185000E-02   -8.5424799E-11
  2.2220001E-02   -2.2368266E-10
  2.2255000E-02    8.7520005E-11
  2.2290001E-02   -4.3957127E-10
  2.2325000E-02    1.0359833E-10
  2.2360001E-02    7.6950069E-10
  2.2395000E-02   -1.5454810E-10
  2.2430001E-02   -2.3817348E-10
  2.2465000E-02    2.6650457E-10
  2.2500001E-02   -4.1613818E-10
  2.2535000E-02    1.4613298E-10
  2.2569999E-02    9.0626529E-10
  2.2605000E-02   -8.3887902E-10
  2.2639999E-02   -1.2007791E-09
  2.2675000E-02    5.1735882E-10
  2.2709999E-02    3.3828770E-10
  2.2745000E-02    3.8083964E-10
  2.2779999E-02    1.2944922E-09
  2.2815000E-02   -7.1956940E-10
  2.2849999E-02   -1.6051759E-09
  2.2885000E-02    9.2227193E-10
  2.2919999E-02    1.2511077E-10
  2.2955000E-02   -1.6550242E-09
  2.2990000E-02    1.1251775E-09
  2.3025000E-02    2.0305668E-09
  2.3060000E-02   -4.8728666E-10
  2.3095001E-02    9.0948957E-11
  2.3130000E-02    2.4643693E-10
  2.3165001E-02   -1.6098380E-09
  2.3200000E-02    8.1913698E-11
  2.3235001E-02    1.1898128E-09
  2.3270000E-02   -1.7732811E-09
  2.3305001E-02   -1.4427600E-09
  2.3340000E-02    1.4417548E-09
  2.3375001E-02    1.3514799E-09
  2.3410000E-02    1.1447618E-09
  2.3445001E-02    6.0354999E-10
  2.3480000E-02   -2.2160196E-09
  2.3514999E-02   -1.7129543E-09
  2.3550000E-02    1.4029787E-09
  2.3584999E-02    6.4673378E-10
  2.3620000E-02   -2.2097126E-10
  2.3654999E-02    8.9815150E-10
  2.3690000E-02   -1.0250736E-09
  2.3724999E-02   -1.5421040E-09
  2.3760000E-02    1.7201153E-09
  2.3794999E-02    6.2155125E-10
  2.3830000E-02   -8.5690238E-10
  2.3864999E-02    9.6233177E-10
  2.3900000E-02   -7.2841982E-10
  2.3934999E-02   -2.2713058E-09
  2.3970000E-02    1.0361917E-09
  2.4005000E-02    1.1714343E-09
  2.4040001E-02   -8.5019308E-10
  2.4075000E-02    1.1235584E-09
  2.4110001E-02    4.7118121E-10
  2.4145000E-02   -2.6209275E-09
  2.4180001E-02    1.0656916E-09
  2.4215000E-02    2.9366216E-09
  2.4250001E-02   -2.6037743E-09
  2.4285000E-02   -1.6225878E-09
  2.4320001E-02    3.3970584E-09
  2.4355000E-02   -3.5749712E-10
  2.4390001E-02   -4.0076977E-09
  2.4425000E-02    1.0738388E-09
  2.4460001E-02    3.9293768E-09
  2.4495000E-02   -9.4287578E-10
  2.4529999E-02   -2.2686353E-09
  2.4565000E-02    3.2297698E-10
  2.4599999E-02   -1.3455033E-09
  2.4635000E-02   -2.3291575E-09
  2.4669999E-02    2.6317142E-09
  2.4705000E-02    2.6115006E-09
  2.4739999E-02   -3.3534764E-09
  2.4775000E-02   -2.4378364E-09
  2.4809999E-02    3.5327221E-09
  2.4845000E-02    1.2155875E-09
  2.4879999E-02   -1.3034276E-09
  2.4915000E-02    3.4994367E-09
  2.4950000E-02    1.6376287E-09
  2.4985000E-02   -4.3981636E-09
  2.5020000E-02   -2.3292646E-09
  2.5055001E-02    6.2491479E-10
  2.5090000E-02   -1.5683167E-09
  2.5125001E-02    1.5045670E-09
  2.5160000E-02    5.1570908E-09
  2.5195001E-02   -2.1891582E-09
  2.5230000E-02   -5.0185176E-09
  2.5265001E-02    2.6417852E-09
  2.5300000E-02    2.1176010E-09
  2.5335001E-02   -4.3401229E-09
  2.5370000E-02   -4.8261956E-10
  2.5405001E-02    4.1058703E-09
  2.5440000E-02    8.8049157E-10
  2.5474999E-02   -2.0867890E-09
  2.5510000E-02   -1.5957746E-09
  2.5544999E-02    5.0786536E-10
  2.5580000E-02    1.7728308E-09
  2.5614999E-02    3.9619827E-10
  2.5650000E-02    1.4181260E-09
  2.5684999E-02    2.5238829E-09
  2.5720000E-02   -2.7393090E-09
  2.5754999E-02   -4.6542805E-09
  2.5790000E-02    4.1068079E-10
  2.5824999E-02    1.2297484E-10
  2.5860000E-02   -1.2570055E-09
  2.5895000E-02    4.1948538E-09
  2.5930000E-02    2.8849623E-09
  2.5965000E-02   -2.9616909E-09
  2.6000001E-02   -8.5226104E-10
  2.6035000E-02    9.4586361E-10
  2.6070001E-02   -1.7842007E-09
  2.6105000E-02    6.3179184E-10
  2.6140001E-02    1.9888136E-09
  2.6175000E-02   -1.8089682E-09
  2.6210001E-02   -7.2192213E-10
  2.6245000E-02    3.8742471E-09
  2.6280001E-02    1.7128040E-09
  2.6315000E-02   -4.1667664E-10
  2.6350001E-02    1.1662235E-09
  2.6385000E-02   -2.0656510E-09
  2.6419999E-02   -3.1634206E-09
  2.6455000E-02    1.4360110E-09
  2.6489999E-02    1.2018188E-09
  2.6525000E-02   -3.6181719E-10
  2.6559999E-02    3.4109653E-09
  2.6595000E-02    6.7926870E-10
  2.6629999E-02   -4.5792095E-09
  2.6665000E-02   -3.8923775E-10
  2.6699999E-02    1.2466087E-09
  2.6735000E-02   -2.1042119E-09
  2.6769999E-02    1.6550084E-09
  2.6805000E-02    5.7569487E-09
  2.6839999E-02   -1.3147855E-09
  2.6875000E-02   -5.4474407E-09
  2.6910000E-02    2.1947324E-09
  2.6945001E-02    5.1698921E-09
  2.6980000E-02   -1.8336079E-09