 -4.8000002E-03    1.0000000E-24
 -4.7650002E-03    1.0000000E-24
 -4.7300002E-03    1.0000002E-24
 -4.6950001E-03    1.0000002E-24
 -4.6600001E-03    1.0000002E-24
 -4.6250001E-03    1.0000000E-24
 -4.5900000E-03    1.0000000E-24
 -4.5550000E-03    1.0000002E-24
 -4.5200000E-03    1.0000002E-24
 -4.4849999E-03    1.0000002E-24
 -4.4499999E-03    1.0000001E-24
 -4.4149999E-03    9.9999982E-25
 -4.3799998E-03    9.9999982E-25
 -4.3449998E-03    1.0000005E-24
 -4.3100002E-03    1.0000006E-24
 -4.2750002E-03    9.9999992E-25
 -4.2400002E-03    9.9999963E-25
 -4.2050001E-03    1.0000001E-24
 -4.1700001E-03    1.0000002E-24
 -4.1350001E-03    9.9999992E-25
 -4.1000000E-03    1.0000000E-24
 -4.0650000E-03    1.0000002E-24
 -4.0300000E-03    1.0000002E-24
 -3.9949999E-03    1.0000003E-24
 -3.9599999E-03    9.9999992E-25
 -3.9249999E-03    9.9999963E-25
 -3.8900001E-03    1.0000001E-24
 -3.8550000E-03    1.0000004E-24
 -3.8200000E-03    9.9999992E-25
 -3.7849999E-03    9.9999992E-25
 -3.7499999E-03    1.0000002E-24
 -3.7150001E-03    1.0000003E-24
 -3.6800001E-03    1.0000003E-24
 -3.6450000E-03    1.0000004E-24
 -3.6100000E-03    9.9999972E-25
 -3.5750000E-03    9.9999943E-25
 -3.5399999E-03    1.0000002E-24
 -3.5049999E-03    1.0000006E-24
 -3.4700001E-03    1.0000002E-24
 -3.4350001E-03    1.0000002E-24
 -3.4000000E-03    1.0000002E-24
 -3.3650000E-03    9.9999953E-25
 -3.3300000E-03    9.9999943E-25
 -3.2949999E-03    1.0000001E-24
 -3.2599999E-03    1.0000005E-24
 -3.2250001E-03    1.0000002E-24
 -3.1900001E-03    1.0000000E-24
 -3.1550000E-03    1.0000000E-24
 -3.1200000E-03    9.9999972E-25
 -3.0850000E-03    9.9999992E-25
 -3.0499999E-03    1.0000002E-24
 -3.0149999E-03    1.0000000E-24
 -2.9800001E-03    9.9999992E-25
 -2.9450001E-03    1.0000002E-24
 -2.9100000E-03    1.0000002E-24
 -2.8750000E-03    1.0000000E-24
 -2.8400000E-03    1.0000002E-24
 -2.8049999E-03    1.0000001E-24
 -2.7699999E-03    9.9999963E-25
 -2.7350001E-03    9.9999992E-25
 -2.7000001E-03    1.0000006E-24
 -2.6650000E-03    1.0000005E-24
 -2.6300000E-03    1.0000003E-24
 -2.5950000E-03    1.0000001E-24
 -2.5599999E-03    9.9999992E-25
 -2.5249999E-03    1.0000001E-24
 -2.4900001E-03    1.0000005E-24
 -2.4550001E-03    1.0000002E-24
 -2.4200000E-03    9.9999943E-25
 -2.3850000E-03    9.9999963E-25
 -2.3500000E-03    1.0000001E-24
 -2.3149999E-03    1.0000001E-24
 -2.2799999E-03    1.0000008E-24
 -2.2450001E-03    1.0000007E-24
 -2.2100001E-03    9.9999943E-25
 -2.1750000E-03    9.9999923E-25
 -2.1400000E-03    1.0000005E-24
 -2.1050000E-03    1.0000005E-24
 -2.0699999E-03    9.9999943E-25
 -2.0349999E-03    9.9999953E-25
 -2.0000001E-03    1.0000005E-24
 -1.9650001E-03    1.0000011E-24
 -1.9300000E-03    1.0000007E-24
 -1.8950000E-03    9.9999992E-25
 -1.8600000E-03    9.9999972E-25
 -1.8250000E-03    1.0000000E-24
 -1.7900000E-03    9.9999992E-25
 -1.7550000E-03    9.9999943E-25
 -1.7199999E-03    9.9999992E-25
 -1.6850000E-03    1.0000007E-24
 -1.6500000E-03    1.0000005E-24
 -1.6150000E-03    9.9999982E-25
 -1.5800000E-03    9.9999992E-25
 -1.5450000E-03    1.0000000E-24
 -1.5100000E-03    1.0000000E-24
 -1.4750001E-03    1.0000003E-24
 -1.4400000E-03    1.0000004E-24
 -1.4050000E-03    9.9999972E-25
 -1.3700000E-03    9.9999972E-25
 -1.3350000E-03    1.0000002E-24
 -1.3000000E-03    9.9999992E-25
 -1.2650000E-03    9.9999992E-25
 -1.2300001E-03    1.0000005E-24
 -1.1950000E-03    1.0000002E-24
 -1.1600000E-03    9.9999953E-25
 -1.1250000E-03    9.9999972E-25
 -1.0900000E-03    1.0000003E-24
 -1.0550000E-03    1.0000006E-24
 -1.0200000E-03    1.0000001E-24
 -9.8500005E-04    9.9999943E-25
 -9.5000002E-04    1.0000001E-24
 -9.1499998E-04    1.0000009E-24
 -8.8000001E-04    9.9999933E-25
 -8.4499997E-04    9.9999815E-25
 -8.1000000E-04    1.0000002E-24
 -7.7500002E-04    1.0000021E-24
 -7.3999999E-04    1.0000012E-24
 -7.0500001E-04    1.0000003E-24
 -6.6999998E-04    1.0000003E-24
 -6.3500000E-04    9.9999963E-25
 -6.0000003E-04    9.9999864E-25
 -5.6499999E-04    9.9999933E-25
 -5.3000002E-04    1.0000007E-24
 -4.9499999E-04    1.0000005E-24
 -4.6000001E-04    9.9999884E-25
 -4.2500001E-04    9.9999884E-25
 -3.9000000E-04    1.0000015E-24
 -3.5500000E-04    1.0000021E-24
 -3.1999999E-04    9.9999884E-25
 -2.8499999E-04    9.9999943E-25
 -2.5000001E-04    1.0000010E-24
 -2.1499999E-04    9.9999805E-25
 -1.8000000E-04    9.9999568E-25
 -1.4500000E-04    1.0000035E-24
 -1.1000000E-04    1.0000070E-24
 -7.5000004E-05    9.9999341E-25
 -3.9999999E-05    9.9998217E-25
 -4.9999999E-06    1.0000138E-24
  2.9999999E-05    1.0000088E-24
  6.5000000E-05    9.9996058E-25
  9.9999997E-05    1.0000179E-24
  1.3499999E-04    1.0000630E-24
  1.7000000E-04    9.9998750E-25
  2.0500000E-04    1.0000275E-24
  2.3999999E-04    1.0001713E-24
  2.7500000E-04    9.9980566E-25
  3.1000000E-04    9.9988593E-25
  3.4500001E-04    1.0007016E-24
  3.8000001E-04    1.0002626E-24
  4.1499999E-04    9.9897519E-25
  4.4999999E-04    1.0002627E-24
  4.8500000E-04    1.0017024E-24
  5.2000000E-04    9.9835091E-25
  5.5499998E-04    9.9568357E-25
  5.9000001E-04    1.0014530E-24
  6.2499999E-04    1.0065272E-24
  6.6000002E-04    9.9543301E-25
  6.9500000E-04    9.8673010E-25
  7.3000003E-04    1.0034441E-24
  7.6500000E-04    1.0224015E-24
  7.9999998E-04    1.0013110E-24
  8.3500001E-04    9.6090535E-25
  8.6999999E-04    9.9563042E-25
  9.0500002E-04    1.0624535E-24
  9.4000000E-04    1.0251713E-24
  9.7499997E-04    9.0537783E-25
  1.0100000E-03    9.0179660E-25
  1.0450000E-03    1.0994542E-24
  1.0800000E-03    1.1558473E-24
  1.1150000E-03    8.5952884E-25
  1.1500000E-03    6.9204593E-25
  1.1849999E-03    1.1934929E-24
  1.2200000E-03    1.6600463E-24
  1.2550000E-03    7.5275903E-25
  1.2900000E-03   -4.9208389E-25
  1.3250000E-03    1.0492954E-24
  1.3600000E-03    3.4988166E-24
  1.3950000E-03    1.0324366E-24
  1.4299999E-03   -3.3166225E-24
  1.4650000E-03   -4.0301039E-26
  1.5000000E-03    7.5581560E-24
  1.5350000E-03    4.0702635E-24
  1.5700000E-03   -9.6458322E-24
  1.6050000E-03   -7.2695986E-24
  1.6400000E-03    1.5722214E-23
  1.6749999E-03    1.7923507E-23
  1.7100000E-03   -1.6681194E-23
  1.7450000E-03   -2.9393759E-23
  1.7800000E-03    2.0383645E-23
  1.8150000E-03    5.3463577E-23
  1.8500000E-03   -1.3218351E-23
  1.8850000E-03   -8.5207504E-23
  1.9200000E-03   -2.8157757E-24
  1.9550000E-03    1.3701710E-22
  1.9900000E-03    5.1455781E-23
  2.0250001E-03   -1.9987321E-22
  2.0600001E-03   -1.4267852E-22
  2.0949999E-03    2.7124097E-22
  2.1299999E-03    3.1174236E-22
  2.1650000E-03   -3.2879801E-22
  2.2000000E-03   -5.8863145E-22
  2.2350000E-03    3.2187199E-22
  2.2700001E-03    1.0077647E-21
  2.3050001E-03   -1.8620012E-22
  2.3399999E-03   -1.6001298E-21
  2.3749999E-03   -2.1928634E-22
  2.4100000E-03    2.3206035E-21
  2.4450000E-03    1.0733322E-21
  2.4800000E-03   -3.0633788E-21
  2.5150001E-03   -2.5740907E-21
  2.5500001E-03    3.7153342E-21
  2.5849999E-03    5.0670128E-21
  2.6199999E-03   -3.6922968E-21
  2.6550000E-03   -8.6493785E-21
  2.6900000E-03    2.4767603E-21
  2.7250000E-03    1.3516663E-20
  2.7600001E-03    1.2236788E-21
  2.7950001E-03   -1.9175368E-20
  2.8299999E-03   -8.5992356E-21
  2.8649999E-03    2.4760241E-20
  2.9000000E-03    2.1458702E-20
  2.9350000E-03   -2.7906764E-20
  2.9700000E-03   -4.0916602E-20
  3.0050001E-03    2.5190204E-20
  3.0400001E-03    6.7960216E-20
  3.0749999E-03   -1.0680579E-20
  3.1099999E-03   -1.0078831E-19
  3.1450000E-03   -2.2910114E-20
  3.1800000E-03    1.3450161E-19
  3.2150000E-03    8.4326359E-20
  3.2500001E-03   -1.5806093E-19
  3.2850001E-03   -1.8012508E-19
  3.3199999E-03    1.5371614E-19
  3.3549999E-03    3.1468737E-19
  3.3900000E-03   -9.2691598E-20
  3.4250000E-03   -4.8106844E-19
  3.4600000E-03   -6.2834901E-20
  3.4950001E-03    6.5060831E-19
  3.5300001E-03    3.5155933E-19
  3.5649999E-03   -7.7205011E-19
  3.5999999E-03   -8.0951829E-19
  3.6350000E-03    7.5440635E-19
  3.6700000E-03    1.4542081E-18
  3.7050000E-03   -4.5519268E-19
  3.7400001E-03   -2.2266122E-18
  3.7750001E-03   -2.7600556E-19
  3.8099999E-03    3.0179515E-18
  3.8449999E-03    1.6429899E-18
  3.8800000E-03   -3.5406432E-18
  3.9149998E-03   -3.7641321E-18
  3.9499998E-03    3.3933271E-18
  3.9849998E-03    6.6706947E-18
  4.0199999E-03   -1.9551133E-18
  4.0549999E-03   -1.0105766E-17
  4.0899999E-03   -1.4815567E-18
  4.1250000E-03    1.3443478E-17
  4.1600000E-03    7.6521188E-18
  4.1950000E-03   -1.5476051E-17
  4.2300001E-03   -1.7030018E-17
  4.2650001E-03    1.4363576E-17
  4.3000001E-03    2.9479288E-17
  4.3350002E-03   -7.6701274E-18
  4.3700002E-03   -4.3795064E-17
  4.4049998E-03   -7.4327588E-18
  4.4399998E-03    5.7097015E-17
  4.4749998E-03    3.3492702E-17
  4.5099999E-03   -6.4383398E-17
  4.5449999E-03   -7.1744730E-17
  4.5799999E-03    5.8598937E-17
  4.6150000E-03    1.2098349E-16
  4.6500000E-03   -3.0517499E-17
  4.6850001E-03   -1.7533299E-16
  4.7200001E-03   -2.9167765E-17
  4.7550001E-03    2.2349192E-16
  4.7900002E-03    1.2850517E-16
  4.8250002E-03   -2.4650353E-16
  4.8600002E-03   -2.6878378E-16
  4.8949998E-03    2.1998209E-16
  4.9299998E-03    4.4266003E-16
  4.9649999E-03   -1.1412944E-16
  4.9999999E-03   -6.2647023E-16
  5.0349999E-03   -9.8336495E-17
  5.0700000E-03    7.7950552E-16
  5.1050000E-03    4.3610587E-16
  5.1400000E-03   -8.4048390E-16
  5.1750001E-03   -8.9598362E-16
  5.2100001E-03    7.3300569E-16
  5.2450001E-03    1.4416286E-15
  5.2800002E-03   -3.7526498E-16
  5.3150002E-03   -1.9914206E-15
  5.3500002E-03   -2.9941416E-16
  5.3849998E-03    2.4162898E-15
  5.4199998E-03    1.3208170E-15
  5.4549999E-03   -2.5385124E-15
  5.4899999E-03   -2.6472994E-15
  5.5249999E-03    2.1590976E-15
  5.5600000E-03    4.1448791E-15
  5.5950000E-03   -1.0884082E-15
  5.6300000E-03   -5.5672968E-15
  5.6650001E-03   -8.0068452E-16
  5.7000001E-03    6.5579565E-15
  5.7350001E-03    3.5084835E-15
  5.7700002E-03   -6.6840776E-15
  5.8050002E-03   -6.8477676E-15
  5.8400002E-03    5.5040485E-15
  5.8749998E-03    1.0406017E-14
  5.9099998E-03   -2.6686222E-15
  5.9449999E-03   -1.3545535E-14
  5.9799999E-03   -1.9693393E-15
  6.0149999E-03    1.5440015E-14
  6.0500000E-03    8.2187353E-15
  6.0850000E-03   -1.5204011E-14
  6.1200000E-03   -1.5477899E-14
  6.1550001E-03    1.2062403E-14
  6.1900001E-03    2.2715885E-14
  6.2250001E-03   -5.5536757E-15
  6.2600002E-03   -2.8538681E-14
  6.2950002E-03   -4.2511410E-15
  6.3299998E-03    3.1369326E-14
  6.3649998E-03    1.6572347E-14
  6.3999998E-03   -2.9762210E-14
  6.4349999E-03   -2.9909130E-14
  6.4699999E-03    2.2718891E-14
  6.5049999E-03    4.2124693E-14
  6.5400000E-03   -1.0075190E-14
  6.5750000E-03   -5.0786754E-14
  6.6100000E-03   -7.3039439E-15
  6.6450001E-03    5.3568847E-14
  6.6800001E-03    2.7433935E-14
  6.7150001E-03   -4.8804382E-14
  6.7500002E-03   -4.7465219E-14
  6.7850002E-03    3.5869260E-14
  6.8199998E-03    6.3982511E-14
  6.8549998E-03   -1.5620196E-14
  6.8899998E-03   -7.3676837E-14
  6.9249999E-03   -9.5080846E-15
  6.9599999E-03    7.4180970E-14
  6.9949999E-03    3.5997806E-14
  7.0300000E-03   -6.4377309E-14
  7.0650000E-03   -5.9544044E-14
  7.1000000E-03    4.5049762E-14
  7.1350001E-03    7.5976545E-14
  7.1700001E-03   -1.8780311E-14
  7.2050001E-03   -8.1988297E-14
  7.2400002E-03   -1.0258643E-14
  7.2750002E-03    7.5819871E-14
  7.3099998E-03    3.6863911E-14
  7.3449998E-03   -5.7886835E-14
  7.3799998E-03   -5.5827152E-14
  7.4149999E-03    3.0483591E-14
  7.4499999E-03    6.2228285E-14
  7.4850000E-03    1.8441083E-15
  7.5200000E-03   -5.2466088E-14
  7.5550000E-03   -3.2807351E-14
  7.5900001E-03    2.4678059E-14
  7.6250001E-03    5.4591517E-14
  7.6600001E-03    2.0729271E-14
  7.6950002E-03   -5.7889396E-14
  7.7300002E-03   -7.9920100E-14
  7.7650002E-03    3.2567068E-14
  7.7999998E-03    1.4436071E-13
  7.8349998E-03    3.0948541E-14
  7.8699999E-03   -1.9964802E-13
  7.9049999E-03   -1.3957249E-13
  7.9399999E-03    2.2421169E-13
  7.9750000E-03    2.9337153E-13
  8.0100000E-03   -1.9008378E-13
  8.0450000E-03   -4.8075693E-13
  8.0800001E-03    6.5831990E-14
  8.1150001E-03    6.7281722E-13
  8.1500001E-03    1.7610465E-13
  8.1850002E-03   -8.2050035E-13
  8.2200002E-03   -5.4917155E-13
  8.2550002E-03    8.5550241E-13
  8.2900003E-03    1.0398374E-12
  8.3250003E-03   -6.9819909E-13
  8.3600003E-03   -1.5956950E-12
  8.3950004E-03    2.7303634E-13
  8.4300004E-03    2.1181256E-12
  8.4650004E-03    4.6861099E-13
  8.5000005E-03   -2.4648287E-12
  8.5349996E-03   -1.5221111E-12
  8.5699996E-03    2.4665632E-12
  8.6049996E-03    2.8079507E-12
  8.6399997E-03   -1.9551535E-12
  8.6749997E-03   -4.1574166E-12
  8.7099997E-03    8.0506397E-13
  8.7449998E-03    5.3169504E-12
  8.7799998E-03    1.0215364E-12
  8.8149998E-03   -5.9734561E-12
  8.8499999E-03   -3.4333426E-12
  8.8849999E-03    5.8047477E-12
  8.9199999E-03    6.1898069E-12
  8.9550000E-03   -4.5420482E-12
  8.9900000E-03   -8.9044666E-12
  9.0250000E-03    2.0387633E-12
  9.0600001E-03    1.1079072E-11
  9.0950001E-03    1.6693654E-12
  9.1300001E-03   -1.2163523E-11
  9.1650002E-03   -6.3184961E-12
  9.2000002E-03    1.1647051E-11
  9.2350002E-03    1.1409266E-11
  9.2700003E-03   -9.1592697E-12
  9.3050003E-03   -1.6242636E-11
  9.3400003E-03    4.5605828E-12
  9.3750004E-03    1.9991064E-11
  9.4100004E-03    1.9889370E-12
  9.4450004E-03   -2.1797083E-11
  9.4799995E-03   -9.9844655E-12
  9.5149996E-03    2.0904523E-11
  9.5499996E-03    1.8580191E-11
  9.5849996E-03   -1.6804806E-11
  9.6199997E-03   -2.6662717E-11
  9.6549997E-03    9.3494769E-12
  9.6899997E-03    3.2959954E-11
  9.7249998E-03    1.1734980E-12
  9.7599998E-03   -3.6160724E-11
  9.7949998E-03   -1.3965311E-11
  9.8299999E-03    3.5091294E-11
  9.8649999E-03    2.7685743E-11
  9.8999999E-03   -2.8959873E-11
  9.9350000E-03   -4.0549019E-11
  9.9700000E-03    1.7574421E-11
  1.0005000E-02    5.0525677E-11
  1.0040000E-02   -1.4660420E-12
  1.0075000E-02   -5.5556382E-11
  1.0110000E-02   -1.8008390E-11
  1.0145000E-02    5.3828671E-11
  1.0180000E-02    3.8592497E-11
  1.0215000E-02   -4.4214674E-11
  1.0250000E-02   -5.7280541E-11
  1.0285000E-02    2.6734068E-11
  1.0320000E-02    7.0777675E-11
  1.0355000E-02   -2.7826933E-12
  1.0390000E-02   -7.6070886E-11
  1.0425000E-02   -2.4875036E-11
  1.0460000E-02    7.1006222E-11
  1.0495000E-02    5.2287702E-11
  1.0530000E-02   -5.4935494E-11
  1.0565000E-02   -7.4859993E-11
  1.0600000E-02    2.9212945E-11
  1.0635000E-02    8.8284206E-11
  1.0670000E-02    2.8135742E-12
  1.0705000E-02   -8.9485190E-11
  1.0740000E-02   -3.6269585E-11
  1.0775000E-02    7.7339267E-11
  1.0810000E-02    6.5466320E-11
  1.0845000E-02   -5.3264424E-11
  1.0880000E-02   -8.5081067E-11
  1.0915000E-02    2.1234865E-11
  1.0950000E-02    9.1480219E-11
  1.0985000E-02    1.2944323E-11
  1.1020000E-02   -8.3763697E-11
  1.1055000E-02   -4.3117138E-11
  1.1090000E-02    6.3721410E-11
  1.1125000E-02    6.3787087E-11
  1.1160000E-02   -3.5768877E-11
  1.1195000E-02   -7.1474923E-11
  1.1230000E-02    6.0309045E-12
  1.1265000E-02    6.5576516E-11
  1.1300000E-02    1.8864018E-11
  1.1335000E-02   -4.9054233E-11
  1.1370000E-02   -3.4085876E-11
  1.1405000E-02    2.7041881E-11
  1.1440000E-02    3.7192499E-11
  1.1475000E-02   -6.3010140E-12
  1.1510000E-02   -2.9859698E-11
  1.1545000E-02   -7.8763844E-12
  1.1580000E-02    1.6307837E-11
  1.1615000E-02    1.2400862E-11
  1.1650000E-02   -2.7956472E-12
  1.1685000E-02   -8.5446624E-12
  1.1720000E-02   -6.3766306E-12
  1.1755000E-02   -1.3225400E-12
  1.1790000E-02    6.7371282E-12
  1.1825000E-02    1.0413436E-11
  1.1860000E-02    4.7404891E-13
  1.1895000E-02   -1.3857671E-11
  1.1930000E-02   -1.2147915E-11
  1.1965000E-02    6.5561211E-12
  1.2000000E-02    1.8295235E-11
  1.2035000E-02    5.8265033E-12
  1.2070000E-02   -1.6729156E-11
  1.2105000E-02   -2.0137654E-11
  1.2140000E-02    3.0972482E-12
  1.2175000E-02    2.6112522E-11
  1.2210000E-02    1.6605698E-11
  1.2245000E-02   -2.1059859E-11
  1.2280000E-02   -4.0579602E-11
  1.2315000E-02   -6.2019608E-12
  1.2350000E-02    4.7937584E-11
  1.2385000E-02    4.2200441E-11
  1.2420000E-02   -3.6299651E-11
  1.2455000E-02   -8.2402203E-11
  1.2490000E-02   -6.0728224E-12
  1.2525000E-02    1.0221542E-10
  1.2560000E-02    6.3401555E-11
  1.2595000E-02   -1.0102025E-10
  1.2630000E-02   -1.3953781E-10
  1.2665000E-02    5.0257645E-11
  1.2700000E-02    1.9468581E-10
  1.2735000E-02    3.1271461E-11
  1.2770000E-02   -2.2262332E-10
  1.2805000E-02   -1.4677473E-10
  1.2840000E-02    1.8464227E-10
  1.2875000E-02    2.4237823E-10
  1.2910000E-02   -1.1271170E-10
  1.2945000E-02   -3.3056971E-10
  1.2980000E-02   -2.5044560E-11
  1.3015000E-02    3.4650124E-10
  1.3050000E-02    1.6931900E-10
  1.3085000E-02   -3.0813838E-10
  1.3120000E-02   -3.2170347E-10
  1.3155000E-02    1.7408749E-10
  1.3190000E-02    3.9265605E-10
  1.3225000E-02   -3.1153590E-11
  1.3260000E-02   -4.3171677E-10
  1.3295000E-02   -1.6449384E-10
  1.3330000E-02    3.5517916E-10
  1.3365000E-02    3.0397504E-10
  1.3400000E-02   -2.4184021E-10
  1.3435000E-02   -4.2722012E-10
  1.3470000E-02    3.2190972E-11
  1.3505000E-02    4.1167200E-10
  1.3540000E-02    1.2405117E-10
  1.3575000E-02   -3.6996001E-10
  1.3610000E-02   -3.0103720E-10
  1.3645000E-02    2.0921906E-10
  1.3680000E-02    3.6197462E-10
  1.3715000E-02   -6.6067964E-11
  1.3750000E-02   -4.0272710E-10
  1.3785000E-02   -1.4843425E-10
  1.3820000E-02    2.7463065E-10
  1.3855000E-02    2.2163592E-10
  1.3890000E-02   -1.8742893E-10
  1.3925000E-02   -3.1229916E-10
  1.3960000E-02    5.5683804E-12
  1.3995000E-02    2.5845132E-10
  1.4030000E-02    8.8501310E-11
  1.4065000E-02   -2.1723363E-10
  1.4100000E-02   -2.2143687E-10
  1.4135000E-02    3.6865597E-11
  1.4170000E-02    1.7349303E-10
  1.4205000E-02    2.6534460E-11
  1.4240000E-02   -1.7005013E-10
  1.4275000E-02   -1.4904478E-10
  1.4310000E-02    4.1047048E-11
  1.4345000E-02    1.2836197E-10
  1.4380000E-02   -8.2355659E-12
  1.4415000E-02   -1.7485016E-10
  1.4450000E-02   -1.3004849E-10
  1.4485000E-02    6.8138689E-11
  1.4520000E-02    1.3490913E-10
  1.4555000E-02   -2.3739510E-11
  1.4590000E-02   -1.6340980E-10
  1.4625000E-02   -7.2197290E-11
  1.4660000E-02    1.0017558E-10
  1.4695000E-02    8.0342691E-11
  1.4730000E-02   -9.5979391E-11
  1.4765000E-02   -1.4883307E-10
  1.4800000E-02   -3.0791066E-12
  1.4835000E-02    1.0706953E-10
  1.4870000E-02    2.8206923E-11
  1.4905000E-02   -8.1091411E-11
  1.4940000E-02   -3.9976474E-11
  1.4975000E-02    6.0114032E-11
  1.5010000E-02    4.8292263E-11
  1.5045000E-02   -2.3077512E-11
  1.5080000E-02   -1.1126452E-11
  1.5115000E-02    3.5267265E-11
  1.5150000E-02   -1.5341849E-12
  1.5185000E-02   -4.1015906E-11
  1.5220000E-02    3.9421428E-11
  1.5255000E-02    1.1542921E-10
  1.5290000E-02    1.8150776E-11
  1.5325000E-02   -1.0148146E-10
  1.5360000E-02    6.7341926E-12
  1.5395000E-02    2.0845622E-10
  1.5430000E-02    1.5678490E-10
  1.5465000E-02   -9.4928385E-11
  1.5500000E-02   -1.3110442E-10
  1.5535000E-02    1.2944305E-10
  1.5570000E-02    2.7204733E-10
  1.5605000E-02    7.3552074E-11
  1.5640000E-02   -1.2498737E-10
  1.5675001E-02    8.0739547E-12
  1.5710000E-02    2.4864083E-10
  1.5745001E-02    1.9161785E-10
  1.5780000E-02   -8.4842453E-11
  1.5814999E-02   -1.2985317E-10
  1.5850000E-02    1.5983259E-10
  1.5884999E-02    3.4142184E-10
  1.5920000E-02    1.2650983E-10
  1.5954999E-02   -1.1091071E-10
  1.5990000E-02    6.1845182E-11
  1.6024999E-02    3.5990513E-10
  1.6060000E-02    2.2392735E-10
  1.6094999E-02   -1.8439150E-10
  1.6130000E-02   -1.9076117E-10
  1.6164999E-02    2.3653104E-10
  1.6200000E-02    3.7896569E-10
  1.6235000E-02   -1.3697117E-11
  1.6270000E-02   -2.6149580E-10
  1.6305000E-02    8.9171760E-11
  1.6340001E-02    4.7901610E-10
  1.6375000E-02    2.8304034E-10
  1.6410001E-02   -1.7615601E-10
  1.6445000E-02   -2.0430441E-10
  1.6480001E-02    1.9118920E-10
  1.6515000E-02    3.8382053E-10
  1.6550001E-02    6.2223164E-11
  1.6585000E-02   -3.3110506E-10
  1.6620001E-02   -2.1125100E-10
  1.6655000E-02    2.6912716E-10
  1.6690001E-02    3.5941478E-10
  1.6725000E-02   -1.4031204E-10
  1.6759999E-02   -4.4351545E-10
  1.6795000E-02    2.2895366E-11
  1.6829999E-02    5.6072008E-10
  1.6865000E-02    2.3437882E-10
  1.6899999E-02   -4.9310322E-10
  1.6935000E-02   -4.3901871E-10
  1.6969999E-02    2.7088637E-10
  1.7005000E-02    4.1158521E-10
  1.7039999E-02   -2.2868775E-10
  1.7075000E-02   -5.8105404E-10
  1.7109999E-02   -1.7413507E-10
  1.7145000E-02    2.1159535E-10
  1.7180000E-02   -2.3382128E-11
  1.7215000E-02   -4.0694811E-10
  1.7250000E-02   -3.2746139E-10
  1.7285001E-02    1.6118525E-11
  1.7320000E-02    9.4354878E-11
  1.7355001E-02   -1.2607783E-10
  1.7390000E-02   -2.8897243E-10
  1.7425001E-02   -2.1489441E-10
  1.7460000E-02   -1.0657114E-10
  1.7495001E-02   -2.3903451E-10
  1.7530000E-02   -4.4338391E-10
  1.7565001E-02   -3.0270889E-10
  1.7600000E-02   -2.4006769E-11
  1.7635001E-02   -2.0332340E-10
  1.7670000E-02   -5.9353295E-10
  1.7704999E-02   -4.1155346E-10
  1.7740000E-02    1.4390143E-10
  1.7774999E-02    1.2703946E-10
  1.7810000E-02   -4.6770909E-10
  1.7844999E-02   -6.0942323E-10
  1.7880000E-02    5.7145413E-12
  1.7914999E-02    3.1439737E-10
  1.7950000E-02   -3.2279457E-10
  1.7984999E-02   -8.9131375E-10
  1.8020000E-02   -4.3864221E-10
  1.8054999E-02    2.6287217E-10
  1.8090000E-02    8.7938774E-11
  1.8124999E-02   -6.4720940E-10
  1.8160000E-02   -8.0873847E-10
  1.8195000E-02   -6.1968222E-11
  1.8230001E-02    6.5008993E-10
  1.8265000E-02    3.0377270E-10
  1.8300001E-02   -6.0193311E-10
  1.8335000E-02   -6.7228251E-10
  1.8370001E-02    1.1402541E-10
  1.8405000E-02    4.4343701E-10
  1.8440001E-02   -1.0489880E-10
  1.8475000E-02   -5.9209460E-10
  1.8510001E-02   -3.6884634E-10
  1.8545000E-02    8.3024344E-11
  1.8580001E-02    1.1770776E-10
  1.8615000E-02   -6.9020470E-11
  1.8650001E-02   -3.1090391E-11
  1.8685000E-02    5.0138782E-11
  1.8719999E-02    1.4119994E-12
  1.8755000E-02    1.3933923E-10
  1.8789999E-02    4.0715722E-10
  1.8825000E-02    3.4579922E-10
  1.8859999E-02   -1.9823105E-11
  1.8895000E-02   -3.1246811E-10
  1.8929999E-02   -2.0438239E-10
  1.8965000E-02    3.9656081E-10
  1.8999999E-02    7.6300083E-10
  1.9035000E-02    1.2136998E-10
  1.9069999E-02   -6.3101557E-10
  1.9105000E-02   -9.6755680E-11
  1.9140000E-02    1.0116858E-09
  1.9175000E-02    8.5771934E-10
  1.9210000E-02   -3.6083142E-10
  1.9245001E-02   -5.7693389E-10
  1.9280000E-02    6.0901950E-10
  1.9315001E-02    1.0390697E-09
  1.9350000E-02   -4.6110907E-11
  1.9385001E-02   -4.6788767E-10
  1.9420000E-02    4.8103627E-10
  1.9455001E-02    6.9867467E-10
  1.9490000E-02   -1.0890707E-10
  1.9525001E-02   -5.4004589E-11
  1.9560000E-02    6.4356215E-10
  1.9595001E-02    3.8857387E-10
  1.9630000E-02   -3.2656197E-10
  1.9664999E-02   -1.2435451E-10
  1.9700000E-02    6.5946981E-10
  1.9734999E-02    6.3896638E-10
  1.9770000E-02   -3.2796782E-10
  1.9804999E-02   -6.2150296E-10
  1.9840000E-02    3.4506289E-10
  1.9874999E-02    7.3085438E-10
  1.9910000E-02   -5.4183703E-11
  1.9944999E-02   -2.6301092E-10
  1.9980000E-02    1.5864517E-10
  2.0014999E-02    5.6826564E-11
  2.0050000E-02    1.1145279E-10
  2.0085000E-02    4.4278314E-10
  2.0120000E-02   -9.9458171E-11
  2.0155000E-02   -6.4587113E-10
  2.0190001E-02   -1.8027474E-10
  2.0225000E-02    9.1131470E-11
  2.0260001E-02   -1.6531297E-10
  2.0295000E-02   -2.6061678E-10
  2.0330001E-02   -3.9418852E-10
  2.0365000E-02   -9.3241343E-12
  2.0400001E-02    8.5743068E-10
  2.0435000E-02    1.6670791E-10
  2.0470001E-02   -1.2418649E-09
  2.0505000E-02   -5.8020611E-10
  2.0540001E-02    5.4473903E-10
  2.0575000E-02   -1.5278770E-10
  2.0609999E-02   -1.0015853E-09
  2.0645000E-02   -9.2665603E-10
  2.0679999E-02   -3.7062703E-10
  2.0715000E-02    7.5109802E-10
  2.0749999E-02    8.3738405E-10
  2.0785000E-02   -7.2558626E-10
  2.0819999E-02   -1.0322562E-09
  2.0855000E-02   -3.1597638E-11
  2.0889999E-02   -2.6118388E-10
  2.0925000E-02   -5.7757382E-10
  2.0959999E-02   -1.2364301E-10
  2.0995000E-02   -5.0271098E-10
  2.1029999E-02   -4.6230536E-10
  2.1065000E-02    6.5730466E-10
  2.1100000E-02    2.4295635E-11
  2.1135001E-02   -1.5617823E-09
  2.1170000E-02   -1.0692028E-09
  2.1205001E-02    1.8282291E-10
  2.1240000E-02    5.4481636E-10
  2.1275001E-02    3.9361450E-10
  2.1310000E-02   -7.1195894E-10
  2.1345001E-02   -1.4584339E-09
  2.1380000E-02    1.1649208E-10
  2.1415001E-02    1.4995607E-09
  2.1450000E-02    2.8776698E-10
  2.1485001E-02   -1.3555594E-09
  2.1520000E-02   -1.4820464E-09
  2.1555001E-02   -4.5545148E-10
  2.1590000E-02    7.2844691E-10
  2.1624999E-02    7.1960393E-10
  2.1660000E-02   -2.0003443E-10
  2.1694999E-02   -2.5482286E-10
  2.1730000E-02    2.8485042E-10
  2.1764999E-02    5.5381862E-11
  2.1800000E-02   -6.6855843E-10
  2.1834999E-02   -9.4710306E-10
  2.1870000E-02   -4.4243342E-10
  2.1904999E-02    2.0553434E-10
  2.1940000E-02    1.5565831E-10
  2.1974999E-02   -4.9288903E-11
  2.2010000E-02   -4.3504950E-11
  2.2045000E-02   -4.7492016E-10
  2.2080000E-02   -4.3215811E-10
  2.2115000E-02    7.7737994E-10
  2.2150001E-02    1.0712040E-09
  2.2185000E-02   -1.9861755E-10
  2.2220001E-02   -7.8355383E-10
  2.2255000E-02   -3.4204011E-11
  2.2290001E-02    6.2794575E-10
  2.2325000E-02    4.2445694E-10
  2.2360001E-02   -3.7542433E-10
  2.2395000E-02   -1.1093075E-09
  2.2430001E-02   -1.3616982E-09
  2.2465000E-02   -9.0775493E-10
  2.2500001E-02    3.5366227E-10
  2.2535000E-02    1.0221076E-09
  2.2569999E-02   -1.1997491E-10
  2.2605000E-02   -9.6077213E-10
  2.2639999E-02    3.8322640E-10
  2.2675000E-02    1.6016666E-09
  2.2709999E-02    3.6846662E-10
  2.2745000E-02   -1.2644115E-09
  2.2779999E-02   -3.8258691E-10
  2.2815000E-02    1.1787616E-09
  2.2849999E-02   -1.7339505E-10
  2.2885000E-02   -1.9345920E-09
  2.2919999E-02   -1.9525709E-10
  2.2955000E-02    1.5570208E-09
  2.2990000E-02    1.2999654E-10
  2.3025000E-02   -7.9218759E-10
  2.3060000E-02   -2.2874426E-10
  2.3095001E-02   -9.8669906E-10
  2.3130000E-02   -1.5575807E-09
  2.3165001E-02   -1.3666844E-10
  2.3200000E-02    1.0923739E-09
  2.3235001E-02    7.6937051E-10
  2.3270000E-02   -6.5260647E-10
  2.3305001E-02   -1.1986990E-09
  2.3340000E-02    7.7485757E-10
  2.3375001E-02    1.1152488E-09
  2.3410000E-02   -1.4209525E-09
  2.3445001E-02    2.4782559E-10
  2.3480000E-02    3.3563605E-09
  2.3514999E-02   -1.5140952E-10
  2.3550000E-02   -3.0963900E-09
  2.3584999E-02    2.0255889E-10
  2.3620000E-02    3.5892050E-10
  2.3654999E-02   -2.2007303E-09
  2.3690000E-02   -4.5996806E-10
  2.3724999E-02    1.4376517E-09
  2.3760000E-02    4.9803456E-10
  2.3794999E-02   -3.8512629E-10
  2.3830000E-02   -1.1957193E-09
  2.3864999E-02    1.3511728E-10
  2.3900000E-02    2.3162809E-09
  2.3934999E-02    2.6082633E-10
  2.3970000E-02   -1.3242842E-09
  2.4005000E-02    1.5020475E-09
  2.4040001E-02    8.9248958E-10
  2.4075000E-02   -2.0160094E-09
  2.4110001E-02   -1.0625104E-10
  2.4145000E-02    1.5144719E-09
  2.4180001E-02   -3.8071557E-10
  2.4215000E-02   -5.2035659E-10
  2.4250001E-02   -3.4747660E-10
  2.4285000E-02   -1.0175051E-09
  2.4320001E-02    1.4463389E-10
  2.4355000E-02    5.6922678E-10
  2.4390001E-02    2.8947916E-10
  2.4425000E-02    7.6850019E-11
  2.4460001E-02   -1.9900699E-09
  2.4495000E-02   -6.1417121E-10
  2.4529999E-02    4.8228426E-09
  2.4565000E-02    3.1905210E-09
  2.4599999E-02   -2.3808238E-09
  2.4635000E-02   -2.4121731E-09
  2.4669999E-02   -6.9433526E-10
  2.4705000E-02   -2.8241662E-09
  2.4739999E-02   -2.2296898E-09
  2.4775000E-02    1.7136076E-09
  2.4809999E-02    1.6307192E-09
  2.4845000E-02   -5.9266325E-10
  2.4879999E-02    2.6043526E-10
  2.4915000E-02    2.0120303E-09
  2.4950000E-02    2.0588018E-09
  2.4985000E-02   -1.2503115E-10
  2.5020000E-02   -2.9412326E-09
  2.5055001E-02   -1.9222857E-09
  2.5090000E-02    2.1925504E-09
  2.5125001E-02    6.8688361E-10
  2.5160000E-02   -4.1418038E-09
  2.5195001E-02   -1.3985516E-09
  2.5230000E-02    3.3140719E-09
  2.5265001E-02   -2.3086877E-12
  2.5300000E-02   -1.8259697E-09
  2.5335001E-02    3.4975467E-09
  2.5370000E-02    3.2021359E-09
  2.5405001E-02   -1.8370977E-09
  2.5440000E-02    3.9707115E-10
  2.5474999E-02    3.9054480E-09
  2.5510000E-02   -4.0445369E-10
  2.5544999E-02   -5.4391718E-09
  2.5580000E-02   -2.7711233E-09
  2.5614999E-02    3.5547643E-09
  2.5650000E-02    3.7652397E-09
  2.5684999E-02   -3.0768548E-09
  2.5720000E-02   -5.0564810E-09
  2.5754999E-02    1.6413165E-09
  2.5790000E-02    3.9843444E-09
  2.5824999E-02   -1.1983593E-09
  2.5860000E-02   -1.5549360E-09
  2.5895000E-02    2.7133815E-09
  2.5930000E-02    1.5510460E-09
  2.5965000E-02   -1.1551784E-09
  2.6000001E-02    6.3405187E-10
  2.6035000E-02    1.1815003E-09
  2.6070001E-02   -1.4543043E-09
  2.6105000E-02   -8.7905944E-10
  2.6140001E-02    1.0973294E-09
  2.6175000E-02   -1.0888150E-09
  2.6210001E-02   -3.2946996E-09
  2.6245000E-02   -2.0187780E-09
  2.6280001E-02    1.6907636E-09
  2.6315000E-02    5.5199183E-09
  2.6350001E-02    2.2917379E-09
  2.6385000E-02   -6.7881869E-09
  2.6419999E-02   -8.0306091E-09
  2.6455000E-02   -6.5333872E-10
  2.6489999E-02    3.2481347E-09
  2.6525000E-02    3.7129932E-09
  2.6559999E-02    4.5396109E-09
  2.6595000E-02    5.4101040E-10
  2.6629999E-02   -5.1556586E-09
  2.6665000E-02   -3.8798240E-09
  2.6699999E-02   -9.5765496E-10
  2.6735000E-02   -1.7614546E-09
  2.6769999E-02   -2.3340976E-09
  2.6805000E-02   -4.9628936E-11
  2.6839999E-02    2.2952182E-09
  2.6875000E-02    2.2935029E-09
  2.6910000E-02   -1.9038079E-10
  2.6945001E-02   -3.3831771E-09
  2.6980000E-02   -2.7692462E-09