 -4.8000002E-03    1.0000000E-24
 -4.7650002E-03    1.0000002E-24
 -4.7300002E-03    1.0000002E-24
 -4.6950001E-03    1.0000000E-24
 -4.6600001E-03    1.0000001E-24
 -4.6250001E-03    1.0000004E-24
 -4.5900000E-03    1.0000001E-24
 -4.5550000E-03    9.9999972E-25
 -4.5200000E-03    1.0000004E-24
 -4.4849999E-03    1.0000004E-24
 -4.4499999E-03    9.9999943E-25
 -4.4149999E-03    1.0000001E-24
 -4.3799998E-03    1.0000010E-24
 -4.3449998E-03    9.9999982E-25
 -4.3100002E-03    9.9999943E-25
 -4.2750002E-03    1.0000008E-24
 -4.2400002E-03    1.0000003E-24
 -4.2050001E-03    9.9999903E-25
 -4.1700001E-03    1.0000007E-24
 -4.1350001E-03    1.0000011E-24
 -4.1000000E-03    9.9999923E-25
 -4.0650000E-03    9.9999953E-25
 -4.0300000E-03    1.0000005E-24
 -3.9949999E-03    9.9999972E-25
 -3.9599999E-03    9.9999982E-25
 -3.9249999E-03    1.0000008E-24
 -3.8900001E-03    1.0000002E-24
 -3.8550000E-03    9.9999903E-25
 -3.8200000E-03    1.0000000E-24
 -3.7849999E-03    1.0000006E-24
 -3.7499999E-03    1.0000003E-24
 -3.7150001E-03    1.0000005E-24
 -3.6800001E-03    1.0000004E-24
 -3.6450000E-03    9.9999972E-25
 -3.6100000E-03    9.9999982E-25
 -3.5750000E-03    1.0000002E-24
 -3.5399999E-03    9.9999943E-25
 -3.5049999E-03    9.9999963E-25
 -3.4700001E-03    1.0000006E-24
 -3.4350001E-03    1.0000004E-24
 -3.4000000E-03    9.9999953E-25
 -3.3650000E-03    1.0000004E-24
 -3.3300000E-03    1.0000013E-24
 -3.2949999E-03    9.9999992E-25
 -3.2599999E-03    9.9999893E-25
 -3.2250001E-03    1.0000002E-24
 -3.1900001E-03    1.0000005E-24
 -3.1550000E-03    9.9999953E-25
 -3.1200000E-03    1.0000000E-24
 -3.0850000E-03    1.0000006E-24
 -3.0499999E-03    9.9999982E-25
 -3.0149999E-03    9.9999972E-25
 -2.9800001E-03    1.0000007E-24
 -2.9450001E-03    1.0000007E-24
 -2.9100000E-03    9.9999972E-25
 -2.8750000E-03    9.9999953E-25
 -2.8400000E-03    1.0000006E-24
 -2.8049999E-03    1.0000009E-24
 -2.7699999E-03    9.9999972E-25
 -2.7350001E-03    9.9999903E-25
 -2.7000001E-03    1.0000000E-24
 -2.6650000E-03    1.0000003E-24
 -2.6300000E-03    9.9999972E-25
 -2.5950000E-03    1.0000002E-24
 -2.5599999E-03    1.0000009E-24
 -2.5249999E-03    1.0000002E-24
 -2.4900001E-03    9.9999992E-25
 -2.4550001E-03    1.0000000E-24
 -2.4200000E-03    9.9999953E-25
 -2.3850000E-03    9.9999982E-25
 -2.3500000E-03    1.0000014E-24
 -2.3149999E-03    1.0000006E-24
 -2.2799999E-03    9.9999824E-25
 -2.2450001E-03    9.9999933E-25
 -2.2100001E-03    1.0000019E-24
 -2.1750000E-03    1.0000002E-24
 -2.1400000E-03    9.9999824E-25
 -2.1050000E-03    1.0000004E-24
 -2.0699999E-03    1.0000025E-24
 -2.0349999E-03    1.0000003E-24
 -2.0000001E-03    9.9999834E-25
 -1.9650001E-03    9.9999972E-25
 -1.9300000E-03    1.0000009E-24
 -1.8950000E-03    9.9999933E-25
 -1.8600000E-03    9.9999913E-25
 -1.8250000E-03    1.0000008E-24
 -1.7900000E-03    1.0000011E-24
 -1.7550000E-03    1.0000005E-24
 -1.7199999E-03    1.0000003E-24
 -1.6850000E-03    9.9999992E-25
 -1.6500000E-03    9.9999943E-25
 -1.6150000E-03    1.0000000E-24
 -1.5800000E-03    1.0000009E-24
 -1.5450000E-03    1.0000004E-24
 -1.5100000E-03    9.9999884E-25
 -1.4750001E-03    9.9999903E-25
 -1.4400000E-03    1.0000006E-24
 -1.4050000E-03    1.0000004E-24
 -1.3700000E-03    9.9999923E-25
 -1.3350000E-03    1.0000005E-24
 -1.3000000E-03    1.0000013E-24
 -1.2650000E-03    9.9999943E-25
 -1.2300001E-03    9.9999834E-25
 -1.1950000E-03    1.0000007E-24
 -1.1600000E-03    1.0000016E-24
 -1.1250000E-03    9.9999953E-25
 -1.0900000E-03    9.9999972E-25
 -1.0550000E-03    1.0000016E-24
 -1.0200000E-03    1.0000004E-24
 -9.8500005E-04    9.9999913E-25
 -9.5000002E-04    1.0000006E-24
 -9.1499998E-04    1.0000010E-24
 -8.8000001E-04    9.9999923E-25
 -8.4499997E-04    9.9999913E-25
 -8.1000000E-04    1.0000008E-24
 -7.7500002E-04    1.0000007E-24
 -7.3999999E-04    9.9999844E-25
 -7.0500001E-04    9.9999923E-25
 -6.6999998E-04    1.0000025E-24
 -6.3500000E-04    1.0000001E-24
 -6.0000003E-04    9.9999746E-25
 -5.6499999E-04    1.0000037E-24
 -5.3000002E-04    1.0000004E-24
 -4.9499999E-04    9.9998976E-25
 -4.6000001E-04    1.0000128E-24
 -4.2500001E-04    1.0000182E-24
 -3.9000000E-04    9.9994648E-25
 -3.5500000E-04    9.9999371E-25
 -3.1999999E-04    1.0001539E-24
 -2.8499999E-04    9.9990486E-25
 -2.5000001E-04    9.9966111E-25
 -2.1499999E-04    1.0004714E-24
 -1.8000000E-04    1.0005407E-24
 -1.4500000E-04    9.9850335E-25
 -1.1000000E-04    9.9965351E-25
 -7.5000004E-05    1.0037125E-24
 -3.9999999E-05    9.9849389E-25
 -4.9999999E-06    9.9260218E-25
  2.9999999E-05    1.0078819E-24
  6.5000000E-05    1.0111447E-24
  9.9999997E-05    9.7625866E-25
  1.3499999E-04    9.9138793E-25
  1.7000000E-04    1.0548274E-24
  2.0500000E-04    9.8299869E-25
  2.3999999E-04    8.9872546E-25
  2.7500000E-04    1.0993672E-24
  3.1000000E-04    1.1411131E-24
  3.4500001E-04    7.0972499E-25
  3.8000001E-04    9.0132082E-25
  4.1499999E-04    1.6417555E-24
  4.4999999E-04    7.9863026E-25
  4.8500000E-04   -1.4532050E-25
  5.2000000E-04    2.0776312E-24
  5.5499998E-04    2.5990776E-24
  5.9000001E-04   -1.9859299E-24
  6.2499999E-04   -3.8429320E-25
  6.6000002E-04    7.3743483E-24
  6.9500000E-04    1.7702231E-25
  7.3000003E-04   -1.0270866E-23
  7.6500000E-04    8.2867905E-24
  7.9999998E-04    1.7470702E-23
  8.3500001E-04   -2.0130787E-23
  8.6999999E-04   -1.7267673E-23
  9.0500002E-04    4.6512220E-23
  9.4000000E-04    9.8813230E-24
  9.7499997E-04   -8.0493076E-23
  1.0100000E-03    2.5904122E-23
  1.0450000E-03    1.2506978E-22
  1.0800000E-03   -1.0087308E-22
  1.1150000E-03   -1.5510824E-22
  1.1500000E-03    2.4473227E-22
  1.1849999E-03    1.4159464E-22
  1.2200000E-03   -4.6672737E-22
  1.2550000E-03   -1.1700102E-23
  1.2900000E-03    7.7352292E-22
  1.3250000E-03   -3.2437238E-22
  1.3600000E-03   -1.1149387E-21
  1.3950000E-03    1.0030970E-21
  1.4299999E-03    1.3855808E-21
  1.4650000E-03   -2.1595882E-21
  1.5000000E-03   -1.3569667E-21
  1.5350000E-03    3.9223410E-21
  1.5700000E-03    6.7441160E-22
  1.6050000E-03   -6.3151076E-21
  1.6400000E-03    1.1982238E-21
  1.6749999E-03    9.1875581E-21
  1.7100000E-03   -4.9414247E-21
  1.7450000E-03   -1.2043844E-20
  1.7800000E-03    1.1356618E-20
  1.8150000E-03    1.3899822E-20
  1.8500000E-03   -2.1202316E-20
  1.8850000E-03   -1.3052065E-20
  1.9200000E-03    3.4989624E-20
  1.9550000E-03    6.9084024E-21
  1.9900000E-03   -5.2582789E-20
  2.0250001E-03    8.2121457E-21
  2.0600001E-03    7.2712911E-20
  2.0949999E-03   -3.7129873E-20
  2.1299999E-03   -9.2271118E-20
  2.1650000E-03    8.5759275E-20
  2.2000000E-03    1.0552618E-19
  2.2350000E-03   -1.6074490E-19
  2.2700001E-03   -1.0319381E-19
  2.3050001E-03    2.6878471E-19
  2.3399999E-03    7.1594724E-20
  2.3749999E-03   -4.1537557E-19
  2.4100000E-03    8.0415995E-21
  2.4450000E-03    6.0295325E-19
  2.4800000E-03   -1.5972584E-19
  2.5150001E-03   -8.2812691E-19
  2.5500001E-03    4.1207600E-19
  2.5849999E-03    1.0779321E-18
  2.6199999E-03   -7.9634926E-19
  2.6550000E-03   -1.3247134E-18
  2.6900000E-03    1.3428528E-18
  2.7250000E-03    1.5194433E-18
  2.7600001E-03   -2.0753238E-18
  2.7950001E-03   -1.5830204E-18
  2.8299999E-03    3.0034130E-18
  2.8649999E-03    1.3955158E-18
  2.9000000E-03   -4.1135828E-18
  2.9350000E-03   -7.8355159E-19
  2.9700000E-03    5.3594699E-18
  3.0050001E-03   -4.9288451E-19
  3.0400001E-03   -6.6529289E-18
  3.0749999E-03    2.7519035E-18
  3.1099999E-03    7.8573274E-18
  3.1450000E-03   -6.3956286E-18
  3.1800000E-03   -8.7843016E-18
  3.2150000E-03    1.1905736E-17
  3.2500001E-03    9.1950514E-18
  3.2850001E-03   -1.9822619E-17
  3.3199999E-03   -8.8069151E-18
  3.3549999E-03    3.0701411E-17
  3.3900000E-03    7.3064591E-18
  3.4250000E-03   -4.5036454E-17
  3.4600000E-03   -4.3695911E-18
  3.4950001E-03    6.3143163E-17
  3.5300001E-03   -3.1202039E-19
  3.5649999E-03   -8.4983365E-17
  3.5999999E-03    7.0066408E-18
  3.6350000E-03    1.0991885E-16
  3.6700000E-03   -1.5938894E-17
  3.7050000E-03   -1.3638342E-16
  3.7400001E-03    2.7343008E-17
  3.7750001E-03    1.6147968E-16
  3.8099999E-03   -4.1620638E-17
  3.8449999E-03   -1.8053403E-16
  3.8800000E-03    5.9656881E-17
  3.9149998E-03    1.8667801E-16
  3.9499998E-03   -8.3333192E-17
  3.9849998E-03   -1.7055769E-16
  4.0199999E-03    1.1626082E-16
  4.0549999E-03    1.2029530E-16
  4.0899999E-03   -1.6473925E-16
  4.1250000E-03   -2.1862423E-17
  4.1600000E-03    2.3895159E-16
  4.1950000E-03   -1.3990688E-16
  4.2300001E-03   -3.5440105E-16
  4.2650001E-03    3.7927544E-16
  4.3000001E-03    5.3349518E-16
  4.3350002E-03   -7.0591308E-16
  4.3700002E-03   -8.0686119E-16
  4.4049998E-03    1.1187271E-15
  4.4399998E-03    1.2132841E-15
  4.4749998E-03   -1.5964921E-15
  4.5099999E-03   -1.7961454E-15
  4.5449999E-03    2.0853574E-15
  4.5799999E-03    2.5931812E-15
  4.6150000E-03   -2.4852099E-15
  4.6500000E-03   -3.6160379E-15
  4.6850001E-03    2.6397047E-15
  4.7200001E-03    4.8173135E-15
  4.7550001E-03   -2.3381445E-15
  4.7900002E-03   -6.0463778E-15
  4.8250002E-03    1.3396507E-15
  4.8600002E-03    7.0013431E-15
  4.8949998E-03    5.7033386E-16
  4.9299998E-03   -7.1922660E-15
  4.9649999E-03   -3.4858224E-15
  4.9999999E-03    5.9376446E-15
  5.0349999E-03    7.2527128E-15
  5.0700000E-03   -2.4202179E-15
  5.1050000E-03   -1.1325459E-14
  5.1400000E-03   -4.1736358E-15
  5.1750001E-03    1.4641122E-14
  5.2100001E-03    1.4414786E-14
  5.2450001E-03   -1.5559739E-14
  5.2800002E-03   -2.8292896E-14
  5.3150002E-03    1.1934100E-14
  5.3500002E-03    4.4806386E-14
  5.3849998E-03   -1.3799912E-15
  5.4199998E-03   -6.1548450E-14
  5.4549999E-03   -1.8188184E-14
  5.4899999E-03    7.4409520E-14
  5.5249999E-03    4.7724303E-14
  5.5600000E-03   -7.7574991E-14
  5.5950000E-03   -8.5963619E-14
  5.6300000E-03    6.4039445E-14
  5.6650001E-03    1.2825548E-13
  5.7000001E-03   -2.6842850E-14
  5.7350001E-03   -1.6565698E-13
  5.7700002E-03   -3.8883180E-14
  5.8050002E-03    1.8478060E-13
  5.8400002E-03    1.3321509E-13
  5.8749998E-03   -1.6894609E-13
  5.9099998E-03   -2.4858503E-13
  5.9449999E-03    1.0105632E-13
  5.9799999E-03    3.6764160E-13
  6.0149999E-03    3.1768384E-14
  6.0500000E-03   -4.6291101E-13
  6.0850000E-03   -2.3236260E-13
  6.1200000E-03    4.9923135E-13
  6.1550001E-03    4.8769186E-13
  6.1900001E-03   -4.3943717E-13
  6.2250001E-03   -7.6462670E-13
  6.2600002E-03    2.5304048E-13
  6.2950002E-03    1.0089607E-12
  6.3299998E-03    7.3119482E-14
  6.3649998E-03   -1.1490564E-12
  6.3999998E-03   -5.2400814E-13
  6.4349999E-03    1.1049228E-12
  6.4699999E-03    1.0476033E-12
  6.5049999E-03   -8.0265335E-13
  6.5400000E-03   -1.5506335E-12
  6.5750000E-03    1.9332046E-13
  6.6100000E-03    1.9012901E-12
  6.6450001E-03    7.2530908E-13
  6.6800001E-03   -1.9416005E-12
  6.7150001E-03   -1.8872191E-12
  6.7500002E-03    1.5122768E-12
  6.7850002E-03    3.1424624E-12
  6.8199998E-03   -4.9097748E-13
  6.8549998E-03   -4.2558379E-12
  6.8899998E-03   -1.1597892E-12
  6.9249999E-03    4.9286122E-12
  6.9599999E-03    3.3448858E-12
  6.9949999E-03   -4.8485226E-12
  7.0300000E-03   -5.8036878E-12
  7.0650000E-03    3.7664962E-12
  7.1000000E-03    8.1097108E-12
  7.1350001E-03   -1.5882826E-12
  7.1700001E-03   -9.7178229E-12
  7.2050001E-03   -1.5432480E-12
  7.2400002E-03    1.0061801E-11
  7.2750002E-03    5.2053709E-12
  7.3099998E-03   -8.6855453E-12
  7.3449998E-03   -8.7144415E-12
  7.3799998E-03    5.3769567E-12
  7.4149999E-03    1.1210133E-11
  7.4499999E-03   -2.7281335E-13
  7.4850000E-03   -1.1792451E-11
  7.5200000E-03   -6.0886626E-12
  7.5550000E-03    9.6901055E-12
  7.5900001E-03    1.2780594E-11
  7.6250001E-03   -4.4351922E-12
  7.6600001E-03   -1.8566941E-11
  7.6950002E-03   -3.9764745E-12
  7.7300002E-03    2.2044394E-11
  7.7650002E-03    1.4950555E-11
  7.7999998E-03   -2.1853243E-11
  7.8349998E-03   -2.7203243E-11
  7.8699999E-03    1.6976831E-11
  7.9049999E-03    3.8770334E-11
  7.9399999E-03   -7.1242890E-12
  7.9750000E-03   -4.7208123E-11
  8.0100000E-03   -6.8841170E-12
  8.0450000E-03    5.0056900E-11
  8.0800001E-03    2.2893463E-11
  8.1150001E-03   -4.5541002E-11
  8.1500001E-03   -3.7545859E-11
  8.1850002E-03    3.3337562E-11
  8.2200002E-03    4.6893760E-11
  8.2550002E-03   -1.5118374E-11
  8.2900003E-03   -4.7445981E-11
  8.3250003E-03   -5.4622786E-12
  8.3600003E-03    3.7357676E-11
  8.3950004E-03    2.3524125E-11
  8.4300004E-03   -1.7281497E-11
  8.4650004E-03   -3.4333397E-11
  8.5000005E-03   -9.5911681E-12
  8.5349996E-03    3.4785189E-11
  8.5699996E-03    3.8442867E-11
  8.6049996E-03   -2.4322664E-11
  8.6399997E-03   -6.4324400E-11
  8.6749997E-03    4.8805435E-12
  8.7099997E-03    8.3539432E-11
  8.7449998E-03    2.0034120E-11
  8.7799998E-03   -9.4339411E-11
  8.8149998E-03   -4.6615361E-11
  8.8499999E-03    9.6708482E-11
  8.8849999E-03    7.1722274E-11
  8.9199999E-03   -9.1467722E-11
  8.9550000E-03   -9.2939781E-11
  8.9900000E-03    7.9506630E-11
  9.0250000E-03    1.0779452E-10
  9.0600001E-03   -6.2083262E-11
  9.0950001E-03   -1.1324290E-10
  9.1300001E-03    4.2056268E-11
  9.1650002E-03    1.0659134E-10
  9.2000002E-03   -2.4581727E-11
  9.2350002E-03   -8.7512379E-11
  9.2700003E-03    1.6086523E-11
  9.3050003E-03    5.9674647E-11
  9.3400003E-03   -2.1685572E-11
  9.3750004E-03   -3.0767468E-11
  9.4100004E-03    4.1903869E-11
  9.4450004E-03    9.9823812E-12
  9.4799995E-03   -7.0421176E-11
  9.5149996E-03   -2.7769057E-12
  9.5499996E-03    9.5797585E-11
  9.5849996E-03    5.8305513E-12
  9.6199997E-03   -1.0818164E-10
  9.6549997E-03   -7.1425153E-12
  9.6899997E-03    1.0691986E-10
  9.7249998E-03   -7.3134372E-12
  9.7599998E-03   -1.0341898E-10
  9.7949998E-03    4.3964405E-11
  9.8299999E-03    1.1680015E-10
  9.8649999E-03   -9.4010258E-11
  9.8999999E-03   -1.6273913E-10
  9.9350000E-03    1.3338243E-10
  9.9700000E-03    2.3992019E-10
  1.0005000E-02   -1.3445643E-10
  1.0040000E-02   -3.2439434E-10
  1.0075000E-02    8.4332208E-11
  1.0110000E-02    3.7890879E-10
  1.0145000E-02    3.1514613E-12
  1.0180000E-02   -3.7223252E-10
  1.0215000E-02   -8.9187394E-11
  1.0250000E-02    2.9889455E-10
  1.0285000E-02    1.2663570E-10
  1.0320000E-02   -1.8946975E-10
  1.0355000E-02   -8.8572281E-11
  1.0390000E-02    9.7673855E-11
  1.0425000E-02   -1.0297351E-11
  1.0460000E-02   -6.5975149E-11
  1.0495000E-02    1.2292413E-10
  1.0530000E-02    9.9924180E-11
  1.0565000E-02   -2.0025150E-10
  1.0600000E-02   -1.6929133E-10
  1.0635000E-02    2.1582412E-10
  1.0670000E-02    2.2262577E-10
  1.0705000E-02   -1.8387618E-10
  1.0740000E-02   -2.1653807E-10
  1.0775000E-02    1.6137613E-10
  1.0810000E-02    1.6044201E-10
  1.0845000E-02   -2.0062349E-10
  1.0880000E-02   -1.1912961E-10
  1.0915000E-02    2.8943944E-10
  1.0950000E-02    1.4670372E-10
  1.0985000E-02   -3.6414766E-10
  1.1020000E-02   -2.3972160E-10
  1.1055000E-02    3.6534897E-10
  1.1090000E-02    3.5143125E-10
  1.1125000E-02   -2.5891492E-10
  1.1160000E-02   -3.9757161E-10
  1.1195000E-02    6.9495666E-11
  1.1230000E-02    2.8404731E-10
  1.1265000E-02    7.3775167E-11
  1.1300000E-02   -2.3576195E-11
  1.1335000E-02   -2.7050367E-11
  1.1370000E-02   -2.2431737E-10
  1.1405000E-02   -2.0813218E-10
  1.1440000E-02    3.0421218E-10
  1.1475000E-02    5.0395138E-10
  1.1510000E-02   -1.6932834E-10
  1.1545000E-02   -7.1715894E-10
  1.1580000E-02   -1.5216035E-10
  1.1615000E-02    6.9133416E-10
  1.1650000E-02    5.0590665E-10
  1.1685000E-02   -3.4957784E-10
  1.1720000E-02   -6.1007427E-10
  1.1755000E-02   -1.1093419E-10
  1.1790000E-02    3.4621633E-10
  1.1825000E-02    3.6353731E-10
  1.1860000E-02    8.6829391E-11
  1.1895000E-02   -2.9895869E-10
  1.1930000E-02   -4.4733084E-10
  1.1965000E-02   -1.1907985E-11
  1.2000000E-02    5.8241367E-10
  1.2035000E-02    4.5163748E-10
  1.2070000E-02   -3.3965267E-10
  1.2105000E-02   -7.1355710E-10
  1.2140000E-02   -1.8720006E-10
  1.2175000E-02    4.8837989E-10
  1.2210000E-02    5.2958593E-10
  1.2245000E-02    4.0554400E-11
  1.2280000E-02   -4.1582224E-10
  1.2315000E-02   -4.3183335E-10
  1.2350000E-02    3.9506877E-11
  1.2385000E-02    5.3672833E-10
  1.2420000E-02    3.9940187E-10
  1.2455000E-02   -3.2110298E-10
  1.2490000E-02   -7.2048484E-10
  1.2525000E-02   -2.4189417E-10
  1.2560000E-02    5.3592214E-10
  1.2595000E-02    7.1329376E-10
  1.2630000E-02    1.4965983E-10
  1.2665000E-02   -5.4908850E-10
  1.2700000E-02   -6.8061901E-10
  1.2735000E-02   -4.6879098E-11
  1.2770000E-02    6.9624734E-10
  1.2805000E-02    5.7247906E-10
  1.2840000E-02   -3.7647932E-10
  1.2875000E-02   -8.7990587E-10
  1.2910000E-02   -1.8433639E-10
  1.2945000E-02    7.8079077E-10
  1.2980000E-02    7.7720808E-10
  1.3015000E-02   -5.2205310E-11
  1.3050000E-02   -7.0723549E-10
  1.3085000E-02   -6.7797840E-10
  1.3120000E-02   -5.8886375E-11
  1.3155000E-02    7.2411255E-10
  1.3190000E-02    8.3323004E-10
  1.3225000E-02   -1.4971539E-10
  1.3260000E-02   -1.0852824E-09
  1.3295000E-02   -4.9241372E-10
  1.3330000E-02    9.7791419E-10
  1.3365000E-02    1.1669435E-09
  1.3400000E-02   -2.6564895E-10
  1.3435000E-02   -1.2512757E-09
  1.3470000E-02   -5.2228960E-10
  1.3505000E-02    7.1474821E-10
  1.3540000E-02    9.7444275E-10
  1.3575000E-02    3.6732711E-10
  1.3610000E-02   -3.4585740E-10
  1.3645000E-02   -7.2352568E-10
  1.3680000E-02   -3.2261344E-10
  1.3715000E-02    7.7799039E-10
  1.3750000E-02    1.2257217E-09
  1.3785000E-02    1.0984340E-10
  1.3820000E-02   -1.0703209E-09
  1.3855000E-02   -3.8310419E-10
  1.3890000E-02    1.2583627E-09
  1.3925000E-02    1.3579535E-09
  1.3960000E-02   -1.3987392E-10
  1.3995000E-02   -8.7026042E-10
  1.4030000E-02    6.3569670E-11
  1.4065000E-02    1.0459189E-09
  1.4100000E-02    9.8510311E-10
  1.4135000E-02    6.5989547E-10
  1.4170000E-02    6.5745259E-10
  1.4205000E-02    5.3600119E-10
  1.4240000E-02    3.6412376E-10
  1.4275000E-02    7.2740042E-10
  1.4310000E-02    1.1830453E-09
  1.4345000E-02    9.1676794E-10
  1.4380000E-02    5.4236676E-10
  1.4415000E-02    1.1123953E-09
  1.4450000E-02    2.0465258E-09
  1.4485000E-02    2.1185851E-09
  1.4520000E-02    1.6543140E-09
  1.4555000E-02    1.7232219E-09
  1.4590000E-02    2.0237469E-09
  1.4625000E-02    1.7081295E-09
  1.4660000E-02    1.5009894E-09
  1.4695000E-02    2.5249947E-09
  1.4730000E-02    3.7373051E-09
  1.4765000E-02    3.4813701E-09
  1.4800000E-02    2.7941474E-09
  1.4835000E-02    3.6914816E-09
  1.4870000E-02    5.2042295E-09
  1.4905000E-02    4.9912416E-09
  1.4940000E-02    3.6715382E-09
  1.4975000E-02    3.7550820E-09
  1.5010000E-02    5.4404339E-09
  1.5045000E-02    6.6805041E-09
  1.5080000E-02    6.6223302E-09
  1.5115000E-02    6.5397847E-09
  1.5150000E-02    7.4234219E-09
  1.5185000E-02    8.5311527E-09
  1.5220000E-02    9.0273042E-09
  1.5255000E-02    9.2683914E-09
  1.5290000E-02    9.5450430E-09
  1.5325000E-02    9.7536397E-09
  1.5360000E-02    1.0586644E-08
  1.5395000E-02    1.2306598E-08
  1.5430000E-02    1.3407206E-08
  1.5465000E-02    1.3264649E-08
  1.5500000E-02    1.3599613E-08
  1.5535000E-02    1.5277644E-08
  1.5570000E-02    1.6921364E-08
  1.5605000E-02    1.7546842E-08
  1.5640000E-02    1.7829407E-08
  1.5675001E-02    1.8754241E-08
  1.5710000E-02    2.0206139E-08
  1.5745001E-02    2.1153097E-08
  1.5780000E-02    2.1682004E-08
  1.5814999E-02    2.3090033E-08
  1.5850000E-02    2.4906553E-08
  1.5884999E-02    2.5600391E-08
  1.5920000E-02    2.6253147E-08
  1.5954999E-02    2.8473920E-08
  1.5990000E-02    3.0740789E-08
  1.6024999E-02    3.1373666E-08
  1.6060000E-02    3.1407524E-08
  1.6094999E-02    3.2230989E-08
  1.6130000E-02    3.3966632E-08
  1.6164999E-02    3.5822989E-08
  1.6200000E-02    3.6833441E-08
  1.6235000E-02    3.7729698E-08
  1.6270000E-02    3.9743426E-08
  1.6305000E-02    4.1534292E-08
  1.6340001E-02    4.2114369E-08
  1.6375000E-02    4.3339945E-08
  1.6410001E-02    4.5216321E-08
  1.6445000E-02    4.5620730E-08
  1.6480001E-02    4.5493803E-08
  1.6515000E-02    4.6706589E-08
  1.6550001E-02    4.8337338E-08
  1.6585000E-02    4.9621729E-08
  1.6620001E-02    5.0749122E-08
  1.6655000E-02    5.1255036E-08
  1.6690001E-02    5.1640640E-08
  1.6725000E-02    5.2435563E-08
  1.6759999E-02    5.2811600E-08
  1.6795000E-02    5.3460429E-08
  1.6829999E-02    5.4699029E-08
  1.6865000E-02    5.3890375E-08
  1.6899999E-02    5.1817004E-08
  1.6935000E-02    5.2564204E-08
  1.6969999E-02    5.4509687E-08
  1.7005000E-02    5.3848897E-08
  1.7039999E-02    5.2248616E-08
  1.7075000E-02    5.1533917E-08
  1.7109999E-02    5.0716011E-08
  1.7145000E-02    5.0161834E-08
  1.7180000E-02    4.9894265E-08
  1.7215000E-02    4.8644925E-08
  1.7250000E-02    4.6533664E-08
  1.7285001E-02    4.3388823E-08
  1.7320000E-02    4.0146215E-08
  1.7355001E-02    4.0217358E-08
  1.7390000E-02    4.1262858E-08
  1.7425001E-02    3.7052938E-08
  1.7460000E-02    3.0670730E-08
  1.7495001E-02    2.8955357E-08
  1.7530000E-02    2.9389149E-08
  1.7565001E-02    2.6607939E-08
  1.7600000E-02    2.1147057E-08
  1.7635001E-02    1.6196115E-08
  1.7670000E-02    1.3479581E-08
  1.7704999E-02    1.0924161E-08
  1.7740000E-02    5.8875234E-09
  1.7774999E-02    1.3362594E-09
  1.7810000E-02   -8.5187418E-10
  1.7844999E-02   -5.3960880E-09
  1.7880000E-02   -1.2580443E-08
  1.7914999E-02   -1.6990468E-08
  1.7950000E-02   -1.9180090E-08
  1.7984999E-02   -2.3216609E-08
  1.8020000E-02   -2.9424960E-08
  1.8054999E-02   -3.6197147E-08
  1.8090000E-02   -4.1206562E-08
  1.8124999E-02   -4.4443222E-08
  1.8160000E-02   -4.9208840E-08
  1.8195000E-02   -5.4672775E-08
  1.8230001E-02   -5.8989162E-08
  1.8265000E-02   -6.5293392E-08
  1.8300001E-02   -7.1555249E-08
  1.8335000E-02   -7.3218025E-08
  1.8370001E-02   -7.6521630E-08
  1.8405000E-02   -8.4894971E-08
  1.8440001E-02   -9.0326708E-08
  1.8475000E-02   -9.2234494E-08
  1.8510001E-02   -9.6406055E-08
  1.8545000E-02   -1.0111346E-07
  1.8580001E-02   -1.0460424E-07
  1.8615000E-02   -1.0740467E-07
  1.8650001E-02   -1.0889939E-07
  1.8685000E-02   -1.1373243E-07
  1.8719999E-02   -1.2128504E-07
  1.8755000E-02   -1.2119989E-07
  1.8789999E-02   -1.1813209E-07
  1.8825000E-02   -1.2395813E-07
  1.8859999E-02   -1.2971509E-07
  1.8895000E-02   -1.2706610E-07
  1.8929999E-02   -1.2541456E-07
  1.8965000E-02   -1.2682712E-07
  1.8999999E-02   -1.2675632E-07
  1.9035000E-02   -1.2817786E-07
  1.9069999E-02   -1.2885548E-07
  1.9105000E-02   -1.2582525E-07
  1.9140000E-02   -1.2568321E-07
  1.9175000E-02   -1.2643555E-07
  1.9210000E-02   -1.2135681E-07
  1.9245001E-02   -1.1712859E-07
  1.9280000E-02   -1.1649016E-07
  1.9315001E-02   -1.1265521E-07
  1.9350000E-02   -1.0798784E-07
  1.9385001E-02   -1.0446063E-07
  1.9420000E-02   -9.7602936E-08
  1.9455001E-02   -9.2848538E-08
  1.9490000E-02   -9.3454425E-08
  1.9525001E-02   -8.8846001E-08
  1.9560000E-02   -7.8313988E-08
  1.9595001E-02   -7.1920802E-08
  1.9630000E-02   -6.8062334E-08
  1.9664999E-02   -6.1183428E-08
  1.9700000E-02   -5.3584063E-08
  1.9734999E-02   -4.5913925E-08
  1.9770000E-02   -3.6885485E-08
  1.9804999E-02   -2.9267408E-08
  1.9840000E-02   -2.3827701E-08
  1.9874999E-02   -1.7303680E-08
  1.9910000E-02   -9.1154941E-09
  1.9944999E-02   -1.4236231E-09
  1.9980000E-02    5.9709420E-09
  2.0014999E-02    1.4466862E-08
  2.0050000E-02    2.2885809E-08
  2.0085000E-02    3.0675636E-08
  2.0120000E-02    3.9449695E-08
  2.0155000E-02    4.7711051E-08
  2.0190001E-02    5.4418656E-08
  2.0225000E-02    6.3217257E-08
  2.0260001E-02    7.2395977E-08
  2.0295000E-02    7.6904470E-08
  2.0330001E-02    8.1266002E-08
  2.0365000E-02    8.8980578E-08
  2.0400001E-02    9.5105626E-08
  2.0435000E-02    1.0156580E-07
  2.0470001E-02    1.1127218E-07
  2.0505000E-02    1.1588553E-07
  2.0540001E-02    1.1562172E-07
  2.0575000E-02    1.2255838E-07
  2.0609999E-02    1.3440949E-07
  2.0645000E-02    1.3905711E-07
  2.0679999E-02    1.3699986E-07
  2.0715000E-02    1.3638264E-07
  2.0749999E-02    1.4062680E-07
  2.0785000E-02    1.4705282E-07
  2.0819999E-02    1.4997138E-07
  2.0855000E-02    1.4867462E-07
  2.0889999E-02    1.4840434E-07
  2.0925000E-02    1.5091656E-07
  2.0959999E-02    1.5308048E-07
  2.0995000E-02    1.5300573E-07
  2.1029999E-02    1.5202194E-07
  2.1065000E-02    1.5115748E-07
  2.1100000E-02    1.4822899E-07
  2.1135001E-02    1.4428480E-07
  2.1170000E-02    1.4417112E-07
  2.1205001E-02    1.4372485E-07
  2.1240000E-02    1.3772268E-07
  2.1275001E-02    1.3408618E-07
  2.1310000E-02    1.3369866E-07
  2.1345001E-02    1.2607597E-07
  2.1380000E-02    1.1751492E-07
  2.1415001E-02    1.1780096E-07
  2.1450000E-02    1.1605115E-07
  2.1485001E-02    1.0717115E-07
  2.1520000E-02    1.0007344E-07
  2.1555001E-02    9.3672064E-08
  2.1590000E-02    8.7034138E-08
  2.1624999E-02    8.4920742E-08
  2.1660000E-02    7.9155775E-08
  2.1694999E-02    6.6060771E-08
  2.1730000E-02    5.8452429E-08
  2.1764999E-02    5.5700418E-08
  2.1800000E-02    4.7767763E-08
  2.1834999E-02    4.0041531E-08
  2.1870000E-02    3.5045232E-08
  2.1904999E-02    2.4841293E-08
  2.1940000E-02    1.4132581E-08
  2.1974999E-02    1.0810565E-08
  2.2010000E-02    6.9405020E-09
  2.2045000E-02   -3.2747118E-09
  2.2080000E-02   -1.1789863E-08
  2.2115000E-02   -1.5839758E-08
  2.2150001E-02   -2.3439148E-08
  2.2185000E-02   -3.4327591E-08
  2.2220001E-02   -4.0123147E-08
  2.2255000E-02   -4.4120501E-08
  2.2290001E-02   -5.2899260E-08
  2.2325000E-02   -5.9775985E-08
  2.2360001E-02   -6.3514314E-08
  2.2395000E-02   -7.1780306E-08
  2.2430001E-02   -7.6872830E-08
  2.2465000E-02   -7.4376828E-08
  2.2500001E-02   -8.0951011E-08
  2.2535000E-02   -9.4929234E-08
  2.2569999E-02   -9.6959852E-08
  2.2605000E-02   -9.5302397E-08
  2.2639999E-02   -1.0367791E-07
  2.2675000E-02   -1.0985374E-07
  2.2709999E-02   -1.1024873E-07
  2.2745000E-02   -1.1566771E-07
  2.2779999E-02   -1.1975015E-07
  2.2815000E-02   -1.1652935E-07
  2.2849999E-02   -1.1741310E-07
  2.2885000E-02   -1.2291098E-07
  2.2919999E-02   -1.2270478E-07
  2.2955000E-02   -1.2209171E-07
  2.2990000E-02   -1.2812448E-07
  2.3025000E-02   -1.3051061E-07
  2.3060000E-02   -1.2555014E-07
  2.3095001E-02   -1.2639262E-07
  2.3130000E-02   -1.3157963E-07
  2.3165001E-02   -1.2813746E-07
  2.3200000E-02   -1.2570466E-07
  2.3235001E-02   -1.3237116E-07
  2.3270000E-02   -1.2919028E-07
  2.3305001E-02   -1.1804750E-07
  2.3340000E-02   -1.2348077E-07
  2.3375001E-02   -1.3194716E-07
  2.3410000E-02   -1.2163437E-07
  2.3445001E-02   -1.1318109E-07
  2.3480000E-02   -1.1681381E-07
  2.3514999E-02   -1.1341093E-07
  2.3550000E-02   -1.0792330E-07
  2.3584999E-02   -1.1127499E-07
  2.3620000E-02   -1.0809237E-07
  2.3654999E-02   -9.6262724E-08
  2.3690000E-02   -9.1351716E-08
  2.3724999E-02   -9.0030497E-08
  2.3760000E-02   -8.4224261E-08
  2.3794999E-02   -8.0165528E-08
  2.3830000E-02   -7.9313807E-08
  2.3864999E-02   -7.3971513E-08
  2.3900000E-02   -6.6556822E-08
  2.3934999E-02   -6.9237188E-08
  2.3970000E-02   -7.7949295E-08
  2.4005000E-02   -7.6092050E-08
  2.4040001E-02   -7.3037143E-08
  2.4075000E-02   -8.6171340E-08
  2.4110001E-02   -9.9463882E-08
  2.4145000E-02   -1.0731298E-07
  2.4180001E-02   -1.3418287E-07
  2.4215000E-02   -1.6907140E-07
  2.4250001E-02   -1.8910610E-07
  2.4285000E-02   -2.2227343E-07
  2.4320001E-02   -2.8247538E-07
  2.4355000E-02   -3.3969431E-07
  2.4390001E-02   -3.9956547E-07
  2.4425000E-02   -4.8873972E-07
  2.4460001E-02   -5.9508972E-07
  2.4495000E-02   -7.1149429E-07
  2.4529999E-02   -8.5762582E-07
  2.4565000E-02   -1.0352459E-06
  2.4599999E-02   -1.2374057E-06
  2.4635000E-02   -1.4768372E-06
  2.4669999E-02   -1.7668414E-06
  2.4705000E-02   -2.1073126E-06
  2.4739999E-02   -2.5023289E-06
  2.4775000E-02   -2.9715518E-06
  2.4809999E-02   -3.5289165E-06
  2.4845000E-02   -4.1734188E-06
  2.4879999E-02   -4.9257883E-06
  2.4915000E-02   -5.8201877E-06
  2.4950000E-02   -6.8565369E-06
  2.4985000E-02   -8.0454029E-06
  2.5020000E-02   -9.4433817E-06
  2.5055001E-02   -1.1074545E-05
  2.5090000E-02   -1.2937680E-05
  2.5125001E-02   -1.5091757E-05
  2.5160000E-02   -1.7598411E-05
  2.5195001E-02   -2.0468433E-05
  2.5230000E-02   -2.3750026E-05
  2.5265001E-02   -2.7531409E-05
  2.5300000E-02   -3.1860742E-05
  2.5335001E-02   -3.6789257E-05
  2.5370000E-02   -4.2417643E-05
  2.5405001E-02   -4.8833328E-05
  2.5440000E-02   -5.6104556E-05
  2.5474999E-02   -6.4344604E-05
  2.5510000E-02   -7.3689604E-05
  2.5544999E-02   -8.4242936E-05
  2.5580000E-02   -9.6120610E-05
  2.5614999E-02   -1.0949695E-04
  2.5650000E-02   -1.2453580E-04
  2.5684999E-02   -1.4137239E-04
  2.5720000E-02   -1.6020678E-04
  2.5754999E-02   -1.8127356E-04
  2.5790000E-02   -2.0474668E-04
  2.5824999E-02   -2.3082879E-04
  2.5860000E-02   -2.5980960E-04
  2.5895000E-02   -2.9193950E-04
  2.5930000E-02   -3.2744533E-04
  2.5965000E-02   -3.6664298E-04
  2.6000001E-02   -4.0984794E-04
  2.6035000E-02   -4.5732333E-04
  2.6070001E-02   -5.0940085E-04
  2.6105000E-02   -5.6645210E-04
  2.6140001E-02   -6.2879192E-04
  2.6175000E-02   -6.9675542E-04
  2.6210001E-02   -7.7072618E-04
  2.6245000E-02   -8.5105508E-04
  2.6280001E-02   -9.3809230E-04
  2.6315000E-02   -1.0322268E-03
  2.6350001E-02   -1.1338134E-03
  2.6385000E-02   -1.2431721E-03
  2.6419999E-02   -1.3606544E-03
  2.6455000E-02   -1.4866078E-03
  2.6489999E-02   -1.6213220E-03
  2.6525000E-02   -1.7650636E-03
  2.6559999E-02   -1.9180995E-03
  2.6595000E-02   -2.0806519E-03
  2.6629999E-02   -2.2528830E-03
  2.6665000E-02   -2.4349354E-03
  2.6699999E-02   -2.6269127E-03
  2.6735000E-02   -2.8288243E-03
  2.6769999E-02   -3.0406215E-03
  2.6805000E-02   -3.2622323E-03
  2.6839999E-02   -3.4934955E-03
  2.6875000E-02   -3.7341446E-03
  2.6910000E-02   -3.9838566E-03
  2.6945001E-02   -4.2422246E-03
  2.6980000E-02   -4.5087305E-03