 -4.8000002E-03    1.0000000E-24
 -4.7650002E-03    1.0000002E-24
 -4.7300002E-03    1.0000002E-24
 -4.6950001E-03    1.0000001E-24
 -4.6600001E-03    1.0000000E-24
 -4.6250001E-03    1.0000003E-24
 -4.5900000E-03    1.0000001E-24
 -4.5550000E-03    9.9999992E-25
 -4.5200000E-03    1.0000002E-24
 -4.4849999E-03    1.0000001E-24
 -4.4499999E-03    9.9999992E-25
 -4.4149999E-03    9.9999992E-25
 -4.3799998E-03    9.9999992E-25
 -4.3449998E-03    1.0000003E-24
 -4.3100002E-03    1.0000010E-24
 -4.2750002E-03    1.0000003E-24
 -4.2400002E-03    9.9999933E-25
 -4.2050001E-03    1.0000001E-24
 -4.1700001E-03    1.0000003E-24
 -4.1350001E-03    9.9999963E-25
 -4.1000000E-03    1.0000001E-24
 -4.0650000E-03    1.0000001E-24
 -4.0300000E-03    9.9999963E-25
 -3.9949999E-03    1.0000002E-24
 -3.9599999E-03    1.0000001E-24
 -3.9249999E-03    9.9999923E-25
 -3.8900001E-03    1.0000002E-24
 -3.8550000E-03    1.0000007E-24
 -3.8200000E-03    9.9999992E-25
 -3.7849999E-03    1.0000005E-24
 -3.7499999E-03    1.0000010E-24
 -3.7150001E-03    9.9999953E-25
 -3.6800001E-03    9.9999943E-25
 -3.6450000E-03    1.0000009E-24
 -3.6100000E-03    1.0000002E-24
 -3.5750000E-03    9.9999943E-25
 -3.5399999E-03    1.0000006E-24
 -3.5049999E-03    1.0000001E-24
 -3.4700001E-03    9.9999903E-25
 -3.4350001E-03    1.0000006E-24
 -3.4000000E-03    1.0000005E-24
 -3.3650000E-03    9.9999913E-25
 -3.3300000E-03    1.0000004E-24
 -3.2949999E-03    1.0000009E-24
 -3.2599999E-03    9.9999923E-25
 -3.2250001E-03    9.9999972E-25
 -3.1900001E-03    1.0000011E-24
 -3.1550000E-03    9.9999982E-25
 -3.1200000E-03    9.9999943E-25
 -3.0850000E-03    1.0000013E-24
 -3.0499999E-03    1.0000014E-24
 -3.0149999E-03    9.9999933E-25
 -2.9800001E-03    9.9999913E-25
 -2.9450001E-03    1.0000005E-24
 -2.9100000E-03    1.0000002E-24
 -2.8750000E-03    9.9999913E-25
 -2.8400000E-03    1.0000000E-24
 -2.8049999E-03    1.0000016E-24
 -2.7699999E-03    1.0000005E-24
 -2.7350001E-03    9.9999893E-25
 -2.7000001E-03    1.0000002E-24
 -2.6650000E-03    1.0000013E-24
 -2.6300000E-03    9.9999982E-25
 -2.5950000E-03    9.9999903E-25
 -2.5599999E-03    1.0000007E-24
 -2.5249999E-03    1.0000003E-24
 -2.4900001E-03    9.9999933E-25
 -2.4550001E-03    1.0000004E-24
 -2.4200000E-03    1.0000007E-24
 -2.3850000E-03    9.9999963E-25
 -2.3500000E-03    9.9999982E-25
 -2.3149999E-03    1.0000001E-24
 -2.2799999E-03    9.9999913E-25
 -2.2450001E-03    1.0000000E-24
 -2.2100001E-03    1.0000010E-24
 -2.1750000E-03    1.0000001E-24
 -2.1400000E-03    9.9999963E-25
 -2.1050000E-03    1.0000008E-24
 -2.0699999E-03    1.0000004E-24
 -2.0349999E-03    9.9999953E-25
 -2.0000001E-03    1.0000003E-24
 -1.9650001E-03    1.0000007E-24
 -1.9300000E-03    1.0000003E-24
 -1.8950000E-03    9.9999953E-25
 -1.8600000E-03    9.9999992E-25
 -1.8250000E-03    1.0000011E-24
 -1.7900000E-03    9.9999963E-25
 -1.7550000E-03    9.9999834E-25
 -1.7199999E-03    1.0000008E-24
 -1.6850000E-03    1.0000007E-24
 -1.6500000E-03    9.9999815E-25
 -1.6150000E-03    1.0000000E-24
 -1.5800000E-03    1.0000018E-24
 -1.5450000E-03    9.9999992E-25
 -1.5100000E-03    1.0000003E-24
 -1.4750001E-03    1.0000012E-24
 -1.4400000E-03    9.9999923E-25
 -1.4050000E-03    9.9999884E-25
 -1.3700000E-03    1.0000009E-24
 -1.3350000E-03    1.0000002E-24
 -1.3000000E-03    9.9999923E-25
 -1.2650000E-03    1.0000000E-24
 -1.2300001E-03    9.9999982E-25
 -1.1950000E-03    9.9999982E-25
 -1.1600000E-03    1.0000007E-24
 -1.1250000E-03    1.0000003E-24
 -1.0900000E-03    1.0000002E-24
 -1.0550000E-03    1.0000007E-24
 -1.0200000E-03    9.9999933E-25
 -9.8500005E-04    9.9999933E-25
 -9.5000002E-04    1.0000003E-24
 -9.1499998E-04    9.9999972E-25
 -8.8000001E-04    1.0000001E-24
 -8.4499997E-04    1.0000008E-24
 -8.1000000E-04    9.9999992E-25
 -7.7500002E-04    1.0000005E-24
 -7.3999999E-04    1.0000011E-24
 -7.0500001E-04    9.9999884E-25
 -6.6999998E-04    9.9999854E-25
 -6.3500000E-04    1.0000010E-24
 -6.0000003E-04    1.0000006E-24
 -5.6499999E-04    9.9999913E-25
 -5.3000002E-04    1.0000006E-24
 -4.9499999E-04    1.0000012E-24
 -4.6000001E-04    9.9999933E-25
 -4.2500001E-04    9.9999992E-25
 -3.9000000E-04    1.0000010E-24
 -3.5500000E-04    1.0000003E-24
 -3.1999999E-04    1.0000000E-24
 -2.8499999E-04    1.0000000E-24
 -2.5000001E-04    1.0000001E-24
 -2.1499999E-04    1.0000004E-24
 -1.8000000E-04    9.9999953E-25
 -1.4500000E-04    9.9999884E-25
 -1.1000000E-04    1.0000010E-24
 -7.5000004E-05    1.0000009E-24
 -3.9999999E-05    9.9999824E-25
 -4.9999999E-06    9.9999992E-25
  2.9999999E-05    1.0000015E-24
  6.5000000E-05    9.9999874E-25
  9.9999997E-05    9.9999982E-25
  1.3499999E-04    1.0000032E-24
  1.7000000E-04    9.9999982E-25
  2.0500000E-04    9.9999775E-25
  2.3999999E-04    1.0000014E-24
  2.7500000E-04    1.0000003E-24
  3.1000000E-04    9.9999765E-25
  3.4500001E-04    1.0000009E-24
  3.8000001E-04    1.0000017E-24
  4.1499999E-04    9.9999864E-25
  4.4999999E-04    9.9999992E-25
  4.8500000E-04    1.0000015E-24
  5.2000000E-04    9.9999953E-25
  5.5499998E-04    9.9999903E-25
  5.9000001E-04    1.0000009E-24
  6.2499999E-04    1.0000014E-24
  6.6000002E-04    1.0000001E-24
  6.9500000E-04    9.9999874E-25
  7.3000003E-04    9.9999972E-25
  7.6500000E-04    1.0000007E-24
  7.9999998E-04    1.0000001E-24
  8.3500001E-04    1.0000005E-24
  8.6999999E-04    1.0000009E-24
  9.0500002E-04    9.9999785E-25
  9.4000000E-04    1.0000032E-24
  9.7499997E-04    9.9999963E-25
  1.0100000E-03    9.9998947E-25
  1.0450000E-03    1.0000055E-24
  1.0800000E-03    1.0000129E-24
  1.1150000E-03    9.9998503E-25
  1.1500000E-03    9.9997675E-25
  1.1849999E-03    1.0000182E-24
  1.2200000E-03    9.9999075E-25
  1.2550000E-03    9.9996304E-25
  1.2900000E-03    1.0000134E-24
  1.3250000E-03    1.0000153E-24
  1.3600000E-03    9.9998730E-25
  1.3950000E-03    9.9997675E-25
  1.4299999E-03    9.9984471E-25
  1.4650000E-03    1.0001433E-24
  1.5000000E-03    1.0000942E-24
  1.5350000E-03    9.9973033E-25
  1.5700000E-03    1.0000429E-24
  1.6050000E-03    1.0000329E-24
  1.6400000E-03    1.0001867E-24
  1.6749999E-03    9.9995259E-25
  1.7100000E-03    9.9962916E-25
  1.7450000E-03    1.0006115E-24
  1.7800000E-03    1.0008896E-24
  1.8150000E-03    9.9949801E-25
  1.8500000E-03    9.9948519E-25
  1.8850000E-03    9.9670031E-25
  1.9200000E-03    9.9799424E-25
  1.9550000E-03    1.0015664E-24
  1.9900000E-03    1.0010139E-24
  2.0250001E-03    1.0035157E-24
  2.0600001E-03    1.0070247E-24
  2.0949999E-03    9.9645537E-25
  2.1299999E-03    9.8912360E-25
  2.1650000E-03    1.0060313E-24
  2.2000000E-03    1.0184809E-24
  2.2350000E-03    1.0065088E-24
  2.2700001E-03    9.6598651E-25
  2.3050001E-03    1.0123347E-24
  2.3399999E-03    1.0675877E-24
  2.3749999E-03    1.0124462E-24
  2.4100000E-03    9.3266699E-25
  2.4450000E-03    9.6084146E-25
  2.4800000E-03    1.0872440E-24
  2.5150001E-03    1.0678497E-24
  2.5500001E-03    6.8630499E-25
  2.5849999E-03    8.6473157E-25
  2.6199999E-03    1.4659295E-24
  2.6550000E-03    1.1617725E-24
  2.6900000E-03    4.2731032E-25
  2.7250000E-03    6.8058378E-25
  2.7600001E-03    1.4618001E-24
  2.7950001E-03    1.8322172E-24
  2.8299999E-03    9.0576901E-25
  2.8649999E-03   -8.7367243E-25
  2.9000000E-03    1.0381817E-24
  2.9350000E-03    4.3694102E-24
  2.9700000E-03    1.2334935E-24
  3.0050001E-03   -3.7695561E-24
  3.0400001E-03    3.2086880E-25
  3.0749999E-03    7.3670829E-24
  3.1099999E-03    4.0136797E-24
  3.1450000E-03   -6.4893883E-24
  3.1800000E-03   -6.5779742E-24
  3.2150000E-03    9.3009683E-24
  3.2500001E-03    1.5458774E-23
  3.2850001E-03   -6.5006797E-24
  3.3199999E-03   -2.3325016E-23
  3.3549999E-03    6.6520562E-24
  3.3900000E-03    3.6828997E-23
  3.4250000E-03    5.2435573E-24
  3.4600000E-03   -4.9993381E-23
  3.4950001E-03   -2.0297595E-23
  3.5300001E-03    6.2377049E-23
  3.5649999E-03    4.9985461E-23
  3.5999999E-03   -7.6034371E-23
  3.6350000E-03   -1.1139328E-22
  3.6700000E-03    6.1968079E-23
  3.7050000E-03    1.7249033E-22
  3.7400001E-03   -2.2940894E-23
  3.7750001E-03   -2.3962101E-22
  3.8099999E-03   -6.9506806E-23
  3.8449999E-03    3.1425858E-22
  3.8800000E-03    2.3672335E-22
  3.9149998E-03   -3.6764967E-22
  3.9499998E-03   -4.6380917E-22
  3.9849998E-03    3.9106917E-22
  4.0199999E-03    8.6373660E-22
  4.0549999E-03   -1.8003703E-22
  4.0899999E-03   -1.2406514E-21
  4.1250000E-03   -2.7795139E-22
  4.1600000E-03    1.5748534E-21
  4.1950000E-03    1.0974619E-21
  4.2300001E-03   -1.8744250E-21
  4.2650001E-03   -2.3529140E-21
  4.3000001E-03    1.8429762E-21
  4.3350002E-03    4.1052134E-21
  4.3700002E-03   -8.8436997E-22
  4.4049998E-03   -6.0721741E-21
  4.4399998E-03   -1.6092609E-21
  4.4749998E-03    7.7499303E-21
  4.5099999E-03    5.6675899E-21
  4.5449999E-03   -8.9754484E-21
  4.5799999E-03   -1.2655763E-20
  4.6150000E-03    7.3514885E-21
  4.6500000E-03    2.1812609E-20
  4.6850001E-03   -2.2903383E-21
  4.7200001E-03   -3.2103458E-20
  4.7550001E-03   -8.6894507E-21
  4.7900002E-03    4.1001698E-20
  4.8250002E-03    2.8536978E-20
  4.8600002E-03   -4.5080946E-20
  4.8949998E-03   -5.9862886E-20
  4.9299998E-03    3.9718318E-20
  4.9649999E-03    1.0138443E-19
  4.9999999E-03   -1.5176473E-20
  5.0349999E-03   -1.4667006E-19
  5.0700000E-03   -3.6009211E-20
  5.1050000E-03    1.9158502E-19
  5.1400000E-03    1.2971028E-19
  5.1750001E-03   -2.1307146E-19
  5.2100001E-03   -2.6658808E-19
  5.2450001E-03    1.8879857E-19
  5.2800002E-03    4.4250172E-19
  5.3150002E-03   -9.1098299E-20
  5.3500002E-03   -6.3882637E-19
  5.3849998E-03   -1.2880227E-19
  5.4199998E-03    8.1841074E-19
  5.4549999E-03    5.0122316E-19
  5.4899999E-03   -9.1792202E-19
  5.5249999E-03   -1.0324561E-18
  5.5600000E-03    8.5278516E-19
  5.5950000E-03    1.7460805E-18
  5.6300000E-03   -4.8640898E-19
  5.6650001E-03   -2.5513224E-18
  5.7000001E-03   -3.1427148E-19
  5.7350001E-03    3.2913705E-18
  5.7700002E-03    1.6202192E-18
  5.8050002E-03   -3.7630460E-18
  5.8400002E-03   -3.5050318E-18
  5.8749998E-03    3.6690196E-18
  5.9099998E-03    5.9538053E-18
  5.9449999E-03   -2.5554056E-18
  5.9799999E-03   -8.7142204E-18
  6.0149999E-03    1.2851621E-19
  6.0500000E-03    1.1431031E-17
  6.0850000E-03    4.0646439E-18
  6.1200000E-03   -1.3346967E-17
  6.1550001E-03   -1.0204239E-17
  6.1900001E-03    1.3346484E-17
  6.2250001E-03    1.7999343E-17
  6.2600002E-03   -1.0609630E-17
  6.2950002E-03   -2.6869649E-17
  6.3299998E-03    3.8643938E-18
  6.3649998E-03    3.5814982E-17
  6.3999998E-03    8.0433984E-18
  6.4349999E-03   -4.2886162E-17
  6.4699999E-03   -2.5851561E-17
  6.5049999E-03    4.5187054E-17
  6.5400000E-03    4.8963176E-17
  6.5750000E-03   -3.9520026E-17
  6.6100000E-03   -7.5487848E-17
  6.6450001E-03    2.3003172E-17
  6.6800001E-03    1.0251954E-16
  6.7150001E-03    6.7928742E-18
  6.7500002E-03   -1.2587643E-16
  6.7850002E-03   -5.2809748E-17
  6.8199998E-03    1.3743988E-16
  6.8549998E-03    1.1427582E-16
  6.8899998E-03   -1.2959791E-16
  6.9249999E-03   -1.8607865E-16
  6.9599999E-03    9.5006809E-17
  6.9949999E-03    2.6222999E-16
  7.0300000E-03   -2.5527714E-17
  7.0650000E-03   -3.2977981E-16
  7.1000000E-03   -8.5432517E-17
  7.1350001E-03    3.7189130E-16
  7.1700001E-03    2.3614950E-16
  7.2050001E-03   -3.6868245E-16
  7.2400002E-03   -4.1709985E-16
  7.2750002E-03    3.0075750E-16
  7.3099998E-03    6.1048544E-16
  7.3449998E-03   -1.5100831E-16
  7.3799998E-03   -7.9248985E-16
  7.4149999E-03   -9.6974321E-17
  7.4499999E-03    9.2401564E-16
  7.4850000E-03    4.4729481E-16
  7.5200000E-03   -9.5013835E-16
  7.5550000E-03   -8.6952268E-16
  7.5900001E-03    8.3207371E-16
  7.6250001E-03    1.3286542E-15
  7.6600001E-03   -5.2696768E-16
  7.6950002E-03   -1.7634085E-15
  7.7300002E-03   -3.1856254E-18
  7.7650002E-03    2.0789483E-15
  7.7999998E-03    7.4679952E-16
  7.8349998E-03   -2.1818917E-15
  7.8699999E-03   -1.6592809E-15
  7.9049999E-03    1.9617209E-15
  7.9399999E-03    2.6363003E-15
  7.9750000E-03   -1.3385856E-15
  8.0100000E-03   -3.5429948E-15
  8.0450000E-03    2.5666986E-16
  8.0800001E-03    4.1891476E-15
  8.1150001E-03    1.2534592E-15
  8.1500001E-03   -4.3590090E-15
  8.1850002E-03   -3.0630245E-15
  8.2200002E-03    3.8453919E-15
  8.2550002E-03    4.9087465E-15
  8.2900003E-03   -2.5621512E-15
  8.3250003E-03   -6.5180689E-15
  8.3600003E-03    4.4556861E-16
  8.3950004E-03    7.5107504E-15
  8.4300004E-03    2.3590931E-15
  8.4650004E-03   -7.5063721E-15
  8.5000005E-03   -5.5232367E-15
  8.5349996E-03    6.2038404E-15
  8.5699996E-03    8.5315615E-15
  8.6049996E-03   -3.5155298E-15
  8.6399997E-03   -1.0771314E-14
  8.6749997E-03   -4.2325276E-16
  8.7099997E-03    1.1597784E-14
  8.7449998E-03    5.1628615E-15
  8.7799998E-03   -1.0429418E-14
  8.8149998E-03   -9.9029282E-15
  8.8499999E-03    7.0364183E-15
  8.8849999E-03    1.3676220E-14
  8.9199999E-03   -1.5394149E-15
  8.9550000E-03   -1.5361217E-14
  8.9900000E-03   -5.3853368E-15
  9.0250000E-03    1.3978374E-14
  9.0600001E-03    1.2470502E-14
  9.0950001E-03   -8.9833833E-15
  9.1300001E-03   -1.8001793E-14
  9.1650002E-03    5.7909144E-16
  9.2000002E-03    2.0170975E-14
  9.2350002E-03    1.0202745E-14
  9.2700003E-03   -1.7247581E-14
  9.3050003E-03   -2.1316189E-14
  9.3400003E-03    8.2145137E-15
  9.3750004E-03    2.9863349E-14
  9.4100004E-03    6.8601372E-15
  9.4450004E-03   -3.2438224E-14
  9.4799995E-03   -2.6228184E-14
  9.5149996E-03    2.6035519E-14
  9.5499996E-03    4.6740918E-14
  9.5849996E-03   -8.3533026E-15
  9.6199997E-03   -6.3374721E-14
  9.6549997E-03   -2.0886044E-14
  9.6899997E-03    7.0130594E-14
  9.7249998E-03    5.9375465E-14
  9.7599998E-03   -6.1004987E-14
  9.7949998E-03   -1.0188035E-13
  9.8299999E-03    3.1325365E-14
  9.8649999E-03    1.4019530E-13
  9.8999999E-03    2.0821452E-14
  9.9350000E-03   -1.6382772E-13
  9.9700000E-03   -9.3115850E-14
  1.0005000E-02    1.6131725E-13
  1.0040000E-02    1.7777574E-13
  1.0075000E-02   -1.2284681E-13
  1.0110000E-02   -2.6182496E-13
  1.0145000E-02    4.2373450E-14
  1.0180000E-02    3.2751284E-13
  1.0215000E-02    7.9584065E-14
  1.0250000E-02   -3.5420698E-13
  1.0285000E-02   -2.3331838E-13
  1.0320000E-02    3.2217154E-13
  1.0355000E-02    3.9932359E-13
  1.0390000E-02   -2.1711529E-13
  1.0425000E-02   -5.4949383E-13
  1.0460000E-02    3.4509278E-14
  1.0495000E-02    6.4996863E-13
  1.0530000E-02    2.1711970E-13
  1.0565000E-02   -6.6503503E-13
  1.0600000E-02   -5.1247911E-13
  1.0635000E-02    5.6474405E-13
  1.0670000E-02    8.0992488E-13
  1.0705000E-02   -3.3307835E-13
  1.0740000E-02   -1.0557527E-12
  1.0775000E-02   -2.4401832E-14
  1.0810000E-02    1.1934693E-12
  1.0845000E-02    4.7841912E-13
  1.0880000E-02   -1.1728117E-12
  1.0915000E-02   -9.7749695E-13
  1.0950000E-02    9.5674911E-13
  1.0985000E-02    1.4472117E-12
  1.1020000E-02   -5.3480901E-13
  1.1055000E-02   -1.7982521E-12
  1.1090000E-02   -6.3501342E-14
  1.1125000E-02    1.9471464E-12
  1.1160000E-02    7.6935246E-13
  1.1195000E-02   -1.8365407E-12
  1.1230000E-02   -1.4894074E-12
  1.1265000E-02    1.4404486E-12
  1.1300000E-02    2.1142905E-12
  1.1335000E-02   -7.6936011E-13
  1.1370000E-02   -2.5230558E-12
  1.1405000E-02   -1.1135553E-13
  1.1440000E-02    2.6100864E-12
  1.1475000E-02    1.0778878E-12
  1.1510000E-02   -2.3254740E-12
  1.1545000E-02   -1.9825300E-12
  1.1580000E-02    1.6825641E-12
  1.1615000E-02    2.6857000E-12
  1.1650000E-02   -7.4354346E-13
  1.1685000E-02   -3.0616044E-12
  1.1720000E-02   -3.7482246E-13
  1.1755000E-02    3.0196074E-12
  1.1790000E-02    1.4977610E-12
  1.1825000E-02   -2.5547461E-12
  1.1860000E-02   -2.4461860E-12
  1.1895000E-02    1.7519554E-12
  1.1930000E-02    3.0965311E-12
  1.1965000E-02   -7.3399408E-13
  1.2000000E-02   -3.3760520E-12
  1.2035000E-02   -3.5535938E-13
  1.2070000E-02    3.2603855E-12
  1.2105000E-02    1.3462394E-12
  1.2140000E-02   -2.8191139E-12
  1.2175000E-02   -2.1142155E-12
  1.2210000E-02    2.1903447E-12
  1.2245000E-02    2.6472396E-12
  1.2280000E-02   -1.4624106E-12
  1.2315000E-02   -2.9632059E-12
  1.2350000E-02    6.7116777E-13
  1.2385000E-02    3.0369177E-12
  1.2420000E-02    9.7247168E-14
  1.2455000E-02   -2.9006118E-12
  1.2490000E-02   -7.7289683E-13
  1.2525000E-02    2.6562318E-12
  1.2560000E-02    1.4261795E-12
  1.2595000E-02   -2.2707595E-12
  1.2630000E-02   -2.0905137E-12
  1.2665000E-02    1.5985454E-12
  1.2700000E-02    2.5759670E-12
  1.2735000E-02   -6.9738995E-13
  1.2770000E-02   -2.7398895E-12
  1.2805000E-02   -2.3507861E-13
  1.2840000E-02    2.6804082E-12
  1.2875000E-02    1.2379504E-12
  1.2910000E-02   -2.3317270E-12
  1.2945000E-02   -2.3462263E-12
  1.2980000E-02    1.3641706E-12
  1.3015000E-02    3.0927136E-12
  1.3050000E-02    1.0773365E-13
  1.3085000E-02   -3.0128892E-12
  1.3120000E-02   -1.4452073E-12
  1.3155000E-02    2.3466834E-12
  1.3190000E-02    2.4441798E-12
  1.3225000E-02   -1.3414794E-12
  1.3260000E-02   -3.2651759E-12
  1.3295000E-02   -3.8825198E-13
  1.3330000E-02    3.2736938E-12
  1.3365000E-02    2.6589262E-12
  1.3400000E-02   -1.5803654E-12
  1.3435000E-02   -4.0413428E-12
  1.3470000E-02   -1.2095118E-12
  1.3505000E-02    3.7046542E-12
  1.3540000E-02    3.7391795E-12
  1.3575000E-02   -2.2802556E-12
  1.3610000E-02   -5.8410277E-12
  1.3645000E-02   -8.1849173E-14
  1.3680000E-02    7.4966613E-12
  1.3715000E-02    4.0289378E-12
  1.3750000E-02   -7.1398972E-12
  1.3785000E-02   -8.4537117E-12
  1.3820000E-02    3.8632335E-12
  1.3855000E-02    1.0942117E-11
  1.3890000E-02    7.0640016E-13
  1.3925000E-02   -1.0990358E-11
  1.3960000E-02   -5.0350371E-12
  1.3995000E-02    9.4137181E-12
  1.4030000E-02    9.2388016E-12
  1.4065000E-02   -5.4977472E-12
  1.4100000E-02   -1.2012026E-11
  1.4135000E-02   -7.5542209E-13
  1.4170000E-02    1.0917417E-11
  1.4205000E-02    6.2344882E-12
  1.4240000E-02   -6.7641175E-12
  1.4275000E-02   -8.7167261E-12
  1.4310000E-02    2.6314968E-12
  1.4345000E-02    9.8730824E-12
  1.4380000E-02    1.6725590E-12
  1.4415000E-02   -9.9927410E-12
  1.4450000E-02   -7.1151839E-12
  1.4485000E-02    6.4621177E-12
  1.4520000E-02    1.0251143E-11
  1.4555000E-02   -4.3927996E-13
  1.4590000E-02   -7.6597565E-12
  1.4625000E-02   -1.8427644E-12
  1.4660000E-02    3.5445733E-12
  1.4695000E-02   -8.1092527E-13
  1.4730000E-02   -3.3299216E-12
  1.4765000E-02    2.9267112E-12
  1.4800000E-02    4.8804203E-12
  1.4835000E-02   -2.6360220E-12
  1.4870000E-02   -3.4625586E-12
  1.4905000E-02    5.8234242E-12
  1.4940000E-02    3.4990125E-12
  1.4975000E-02   -1.3036510E-11
  1.5010000E-02   -1.2062458E-11
  1.5045000E-02    1.4527208E-11
  1.5080000E-02    2.4646441E-11
  1.5115000E-02   -4.3555368E-12
  1.5150000E-02   -2.8113104E-11
  1.5185000E-02   -6.6581367E-12
  1.5220000E-02    2.3586157E-11
  1.5255000E-02    1.0137628E-11
  1.5290000E-02   -2.3503435E-11
  1.5325000E-02   -1.6697220E-11
  1.5360000E-02    2.4350924E-11
  1.5395000E-02    3.4698241E-11
  1.5430000E-02   -5.8273425E-12
  1.5465000E-02   -4.2104278E-11
  1.5500000E-02   -2.5341817E-11
  1.5535000E-02    2.1220631E-11
  1.5570000E-02    3.7586868E-11
  1.5605000E-02    5.8372768E-12
  1.5640000E-02   -2.7677364E-11
  1.5675001E-02   -1.4209327E-11
  1.5710000E-02    2.5720795E-11
  1.5745001E-02    2.4806275E-11
  1.5780000E-02   -2.6880833E-11
  1.5814999E-02   -5.1616912E-11
  1.5850000E-02    3.8593448E-13
  1.5884999E-02    6.0433852E-11
  1.5920000E-02    3.8999786E-11
  1.5954999E-02   -3.1266292E-11
  1.5990000E-02   -4.5540450E-11
  1.6024999E-02    6.4425748E-12
  1.6060000E-02    3.2245102E-11
  1.6094999E-02   -6.0958395E-12
  1.6130000E-02   -3.6708359E-11
  1.6164999E-02   -4.5771186E-12
  1.6200000E-02    4.2015818E-11
  1.6235000E-02    3.4644086E-11
  1.6270000E-02   -1.4167376E-11
  1.6305000E-02   -4.0070464E-11
  1.6340001E-02   -1.7936578E-11
  1.6375000E-02    1.6469407E-11
  1.6410001E-02    2.1547462E-11
  1.6445000E-02   -9.2338442E-13
  1.6480001E-02   -1.5171059E-11
  1.6515000E-02   -4.6904288E-13
  1.6550001E-02    1.9922440E-11
  1.6585000E-02    1.1130911E-11
  1.6620001E-02   -1.8101071E-11
  1.6655000E-02   -2.3833250E-11
  1.6690001E-02    4.4187666E-12
  1.6725000E-02    2.5105579E-11
  1.6759999E-02    9.1662615E-12
  1.6795000E-02   -1.8217339E-11
  1.6829999E-02   -1.8850480E-11
  1.6865000E-02    5.9319737E-12
  1.6899999E-02    2.1969860E-11
  1.6935000E-02    9.7339281E-12
  1.6969999E-02   -1.0952821E-11
  1.7005000E-02   -1.2213346E-11
  1.7039999E-02    2.2965134E-13
  1.7075000E-02    2.1098082E-12
  1.7109999E-02   -4.5212900E-12
  1.7145000E-02    1.2334047E-12
  1.7180000E-02    1.2531397E-11
  1.7215000E-02    2.5364918E-12
  1.7250000E-02   -1.6934393E-11
  1.7285001E-02   -4.6800814E-12
  1.7320000E-02    2.5608196E-11
  1.7355001E-02    1.1966791E-11
  1.7390000E-02   -3.5554108E-11
  1.7425001E-02   -3.0518747E-11
  1.7460000E-02    3.1016304E-11
  1.7495001E-02    4.3971538E-11
  1.7530000E-02   -1.7171939E-11
  1.7565001E-02   -4.3715264E-11
  1.7600000E-02    4.9942962E-12
  1.7635001E-02    2.7316822E-11
  1.7670000E-02   -1.3355977E-11
  1.7704999E-02   -1.4951306E-11
  1.7740000E-02    4.1120520E-11
  1.7774999E-02    2.9685563E-11
  1.7810000E-02   -6.0908820E-11
  1.7844999E-02   -6.9305540E-11
  1.7880000E-02    3.9439837E-11
  1.7914999E-02    8.4670555E-11
  1.7950000E-02   -7.8966824E-12
  1.7984999E-02   -6.9215446E-11
  1.8020000E-02   -2.4239926E-12
  1.8054999E-02    4.7180981E-11
  1.8090000E-02   -8.9035255E-12
  1.8124999E-02   -3.6951421E-11
  1.8160000E-02    2.2233248E-11
  1.8195000E-02    2.8715500E-11
  1.8230001E-02   -4.2623509E-11
  1.8265000E-02   -3.5960804E-11
  1.8300001E-02    4.8694777E-11
  1.8335000E-02    4.1941419E-11
  1.8370001E-02   -4.5190178E-11
  1.8405000E-02   -3.7091830E-11
  1.8440001E-02    5.2746817E-11
  1.8475000E-02    3.8777936E-11
  1.8510001E-02   -7.1787416E-11
  1.8545000E-02   -7.1350738E-11
  1.8580001E-02    5.6586406E-11
  1.8615000E-02    8.9572273E-11
  1.8650001E-02   -2.0651744E-11
  1.8685000E-02   -7.0921949E-11
  1.8719999E-02   -4.4270226E-12
  1.8755000E-02    2.7917960E-11
  1.8789999E-02    5.0133582E-12
  1.8825000E-02    2.0363773E-11
  1.8859999E-02    2.0417432E-11
  1.8895000E-02   -6.1677032E-11
  1.8929999E-02   -8.7125675E-11
  1.8965000E-02    4.3574311E-11
  1.8999999E-02    1.4896819E-10
  1.9035000E-02    5.1424965E-11
  1.9069999E-02   -1.1496968E-10
  1.9105000E-02   -1.2055960E-10
  1.9140000E-02    1.1522490E-11
  1.9175000E-02    7.9760573E-11
  1.9210000E-02    2.4341005E-11
  1.9245001E-02   -2.0756445E-11
  1.9280000E-02    1.5345071E-11
  1.9315001E-02    3.8798818E-11
  1.9350000E-02    2.6345347E-12
  1.9385001E-02   -2.7633897E-11
  1.9420000E-02   -4.6979875E-11
  1.9455001E-02   -6.0898904E-11
  1.9490000E-02    9.2057551E-12
  1.9525001E-02    1.0797640E-10
  1.9560000E-02    7.0567469E-11
  1.9595001E-02   -3.8525901E-11
  1.9630000E-02   -5.9080352E-11
  1.9664999E-02   -2.3039114E-11
  1.9700000E-02    1.5715472E-11
  1.9734999E-02    3.5133021E-11
  1.9770000E-02   -2.7334227E-11
  1.9804999E-02   -5.4284542E-11
  1.9840000E-02    7.3152713E-11
  1.9874999E-02    1.2180632E-10
  1.9910000E-02   -3.2750521E-11
  1.9944999E-02   -1.4157858E-10
  1.9980000E-02   -9.4682484E-11
  2.0014999E-02    6.1196388E-11
  2.0050000E-02    2.5091784E-10
  2.0085000E-02    1.4835783E-10
  2.0120000E-02   -2.3932989E-10
  2.0155000E-02   -2.9656108E-10
  2.0190001E-02    2.4972328E-11
  2.0225000E-02    1.6791388E-10
  2.0260001E-02    1.4473994E-10
  2.0295000E-02    1.3942661E-10
  2.0330001E-02   -2.3927362E-11
  2.0365000E-02   -1.8360796E-10
  2.0400001E-02   -1.3319224E-10
  2.0435000E-02   -7.9930118E-11
  2.0470001E-02    4.8802667E-11
  2.0505000E-02    2.5874086E-10
  2.0540001E-02    1.1154891E-10
  2.0575000E-02   -1.3439884E-10
  2.0609999E-02   -2.1304115E-11
  2.0645000E-02   -3.6107152E-11
  2.0679999E-02   -1.8104609E-10
  2.0715000E-02    1.3136796E-10
  2.0749999E-02    2.7219851E-10
  2.0785000E-02   -2.0424118E-10
  2.0819999E-02   -2.7624666E-10
  2.0855000E-02    1.8009073E-10
  2.0889999E-02    2.3538724E-10
  2.0925000E-02   -8.8577383E-12
  2.0959999E-02   -1.4434146E-10
  2.0995000E-02   -1.4155109E-10
  2.1029999E-02    1.7896568E-10
  2.1065000E-02    2.6888441E-10
  2.1100000E-02   -2.9120639E-10
  2.1135001E-02   -3.3862549E-10
  2.1170000E-02    2.6354341E-10
  2.1205001E-02    1.1953064E-10
  2.1240000E-02   -2.3820476E-10
  2.1275001E-02    2.0552697E-10
  2.1310000E-02    2.8560757E-10
  2.1345001E-02   -2.4311389E-10
  2.1380000E-02   -1.1311505E-10
  2.1415001E-02    1.8502710E-10
  2.1450000E-02   -1.3896971E-10
  2.1485001E-02   -3.0104014E-10
  2.1520000E-02   -5.1856248E-11
  2.1555001E-02    2.4176841E-10
  2.1590000E-02    4.2969442E-10
  2.1624999E-02   -3.0988944E-11
  2.1660000E-02   -5.5652061E-10
  2.1694999E-02    9.3101797E-11
  2.1730000E-02    6.0536115E-10
  2.1764999E-02   -2.2575189E-10
  2.1800000E-02   -5.6025856E-10
  2.1834999E-02    1.1244054E-10
  2.1870000E-02    1.0242891E-10
  2.1904999E-02   -1.8431831E-10
  2.1940000E-02    2.3666727E-10
  2.1974999E-02    4.0950193E-10
  2.2010000E-02   -4.8696359E-11
  2.2045000E-02   -3.7101455E-10
  2.2080000E-02   -1.5725679E-10
  2.2115000E-02    4.0612694E-10
  2.2150001E-02    1.9368755E-10
  2.2185000E-02   -8.2516044E-10
  2.2220001E-02   -4.2297713E-10
  2.2255000E-02    1.0028782E-09
  2.2290001E-02    4.9695914E-10
  2.2325000E-02   -8.3564633E-10
  2.2360001E-02   -2.5522071E-10
  2.2395000E-02    8.0001383E-10
  2.2430001E-02    4.6918081E-10
  2.2465000E-02   -4.3333828E-10
  2.2500001E-02   -8.7622826E-10
  2.2535000E-02   -3.5669653E-10
  2.2569999E-02    3.6900435E-10
  2.2605000E-02    1.9464502E-10
  2.2639999E-02    4.9681897E-10
  2.2675000E-02    1.1844649E-09
  2.2709999E-02   -4.7916515E-10
  2.2745000E-02   -2.0823931E-09
  2.2779999E-02    5.4360520E-11
  2.2815000E-02    1.7864199E-09
  2.2849999E-02    2.4543888E-11
  2.2885000E-02   -1.1442967E-09
  2.2919999E-02   -2.3831101E-10
  2.2955000E-02    6.5744687E-10
  2.2990000E-02    9.3910124E-10
  2.3025000E-02   -2.6259903E-10
  2.3060000E-02   -1.3852069E-09
  2.3095001E-02    3.5049175E-10
  2.3130000E-02    1.1170265E-09
  2.3165001E-02   -1.0146833E-09
  2.3200000E-02   -4.2280157E-10
  2.3235001E-02    1.4246958E-09
  2.3270000E-02   -5.6419197E-10
  2.3305001E-02   -1.1782365E-09
  2.3340000E-02    1.4916367E-09
  2.3375001E-02    7.6747220E-10
  2.3410000E-02   -1.4227943E-09
  2.3445001E-02   -4.5484477E-10
  2.3480000E-02    2.9468339E-10
  2.3514999E-02    6.2288696E-10
  2.3550000E-02    1.3446133E-09
  2.3584999E-02   -1.1549557E-09
  2.3620000E-02   -2.5094471E-09
  2.3654999E-02    1.3505553E-09
  2.3690000E-02    2.0209010E-09
  2.3724999E-02   -1.0747838E-09
  2.3760000E-02    7.9391813E-11
  2.3794999E-02    9.1242963E-10
  2.3830000E-02   -1.7122369E-09
  2.3864999E-02   -4.1485496E-10
  2.3900000E-02    1.6703050E-09
  2.3934999E-02   -7.4134826E-10
  2.3970000E-02   -8.4271123E-10
  2.4005000E-02    1.0869534E-09
  2.4040001E-02   -2.6722796E-10
  2.4075000E-02    1.6866120E-10
  2.4110001E-02    1.7157111E-09
  2.4145000E-02   -1.3087427E-09
  2.4180001E-02   -1.8743327E-09
  2.4215000E-02    1.7062445E-09
  2.4250001E-02    3.0148947E-10
  2.4285000E-02   -1.8306942E-09
  2.4320001E-02    1.0915703E-09
  2.4355000E-02    1.2079389E-09
  2.4390001E-02   -1.2277014E-09
  2.4425000E-02    8.7478517E-11
  2.4460001E-02    4.1218684E-10
  2.4495000E-02   -1.0234825E-09
  2.4529999E-02    6.5477684E-10
  2.4565000E-02    9.8663022E-10
  2.4599999E-02   -1.0267347E-09
  2.4635000E-02    1.2586432E-10
  2.4669999E-02    6.4090389E-10
  2.4705000E-02   -1.3762117E-09
  2.4739999E-02    1.3702822E-10
  2.4775000E-02    1.8243878E-09
  2.4809999E-02   -7.6359780E-10
  2.4845000E-02   -1.3041137E-09
  2.4879999E-02    8.2866264E-10
  2.4915000E-02    3.8496559E-10
  2.4950000E-02   -3.6116690E-10
  2.4985000E-02    2.3234392E-10
  2.5020000E-02   -8.0272289E-11
  2.5055001E-02   -3.5027824E-11
  2.5090000E-02    1.3568373E-10
  2.5125001E-02   -9.3826569E-10
  2.5160000E-02   -4.0016071E-10
  2.5195001E-02    1.3379127E-09
  2.5230000E-02    8.6864466E-10
  2.5265001E-02   -3.7601824E-10
  2.5300000E-02   -8.0447687E-10
  2.5335001E-02   -6.6358069E-10
  2.5370000E-02    6.6219574E-10
  2.5405001E-02    1.1290199E-09
  2.5440000E-02   -2.3821883E-10
  2.5474999E-02   -7.4153650E-10
  2.5510000E-02   -9.8596009E-10
  2.5544999E-02   -7.6456880E-10
  2.5580000E-02    2.0135558E-09
  2.5614999E-02    1.9585848E-09
  2.5650000E-02   -2.3469908E-09
  2.5684999E-02   -1.8942026E-09
  2.5720000E-02    1.6456823E-09
  2.5754999E-02    8.3113832E-10
  2.5790000E-02    1.6467290E-10
  2.5824999E-02    6.9195827E-10
  2.5860000E-02   -1.4818917E-09
  2.5895000E-02   -7.1061390E-10
  2.5930000E-02    2.0045261E-09
  2.5965000E-02   -9.0704866E-10
  2.6000001E-02   -1.9802338E-09
  2.6035000E-02    1.7521571E-09
  2.6070001E-02    6.1178740E-10
  2.6105000E-02   -7.2017531E-10
  2.6140001E-02    1.9559847E-09
  2.6175000E-02   -1.0844660E-09
  2.6210001E-02   -4.0183901E-09
  2.6245000E-02    1.8149700E-09
  2.6280001E-02    3.4936944E-09
  2.6315000E-02   -7.4548007E-10
  2.6350001E-02    2.0845911E-10
  2.6385000E-02   -5.9324462E-10
  2.6419999E-02   -3.6906866E-09
  2.6455000E-02    1.7517131E-09
  2.6489999E-02    4.1984967E-09
  2.6525000E-02   -2.9656788E-09
  2.6559999E-02   -2.5294697E-09
  2.6595000E-02    2.7116382E-09
  2.6629999E-02    6.7057793E-10
  2.6665000E-02    1.8480972E-10
  2.6699999E-02    8.9249974E-10
  2.6735000E-02   -3.2702043E-09
  2.6769999E-02   -1.9211193E-09
  2.6805000E-02    2.8565796E-09
  2.6839999E-02    1.6784766E-11
  2.6875000E-02   -5.6120208E-10
  2.6910000E-02    2.9743015E-09
  2.6945001E-02   -2.7714250E-10
  2.6980000E-02   -2.9459715E-09