 -4.8000002E-03    1.0000000E-24
 -4.7650002E-03    1.0000001E-24
 -4.7300002E-03    1.0000002E-24
 -4.6950001E-03    1.0000001E-24
 -4.6600001E-03    1.0000000E-24
 -4.6250001E-03    1.0000002E-24
 -4.5900000E-03    1.0000001E-24
 -4.5550000E-03    9.9999992E-25
 -4.5200000E-03    1.0000004E-24
 -4.4849999E-03    1.0000003E-24
 -4.4499999E-03    9.9999982E-25
 -4.4149999E-03    9.9999992E-25
 -4.3799998E-03    1.0000002E-24
 -4.3449998E-03    1.0000000E-24
 -4.3100002E-03    1.0000001E-24
 -4.2750002E-03    1.0000006E-24
 -4.2400002E-03    1.0000001E-24
 -4.2050001E-03    9.9999943E-25
 -4.1700001E-03    1.0000000E-24
 -4.1350001E-03    1.0000005E-24
 -4.1000000E-03    1.0000000E-24
 -4.0650000E-03    1.0000001E-24
 -4.0300000E-03    1.0000007E-24
 -3.9949999E-03    9.9999982E-25
 -3.9599999E-03    9.9999953E-25
 -3.9249999E-03    1.0000002E-24
 -3.8900001E-03    1.0000002E-24
 -3.8550000E-03    1.0000001E-24
 -3.8200000E-03    1.0000001E-24
 -3.7849999E-03    9.9999972E-25
 -3.7499999E-03    9.9999982E-25
 -3.7150001E-03    1.0000009E-24
 -3.6800001E-03    1.0000008E-24
 -3.6450000E-03    9.9999963E-25
 -3.6100000E-03    1.0000000E-24
 -3.5750000E-03    1.0000006E-24
 -3.5399999E-03    9.9999963E-25
 -3.5049999E-03    9.9999943E-25
 -3.4700001E-03    1.0000007E-24
 -3.4350001E-03    1.0000006E-24
 -3.4000000E-03    9.9999933E-25
 -3.3650000E-03    9.9999972E-25
 -3.3300000E-03    1.0000005E-24
 -3.2949999E-03    1.0000002E-24
 -3.2599999E-03    1.0000000E-24
 -3.2250001E-03    1.0000001E-24
 -3.1900001E-03    9.9999963E-25
 -3.1550000E-03    9.9999963E-25
 -3.1200000E-03    1.0000008E-24
 -3.0850000E-03    1.0000008E-24
 -3.0499999E-03    9.9999943E-25
 -3.0149999E-03    9.9999933E-25
 -2.9800001E-03    1.0000002E-24
 -2.9450001E-03    1.0000001E-24
 -2.9100000E-03    9.9999992E-25
 -2.8750000E-03    1.0000006E-24
 -2.8400000E-03    1.0000007E-24
 -2.8049999E-03    1.0000001E-24
 -2.7699999E-03    1.0000000E-24
 -2.7350001E-03    9.9999953E-25
 -2.7000001E-03    9.9999992E-25
 -2.6650000E-03    1.0000011E-24
 -2.6300000E-03    1.0000005E-24
 -2.5950000E-03    9.9999913E-25
 -2.5599999E-03    9.9999972E-25
 -2.5249999E-03    1.0000009E-24
 -2.4900001E-03    1.0000003E-24
 -2.4550001E-03    1.0000001E-24
 -2.4200000E-03    1.0000003E-24
 -2.3850000E-03    9.9999933E-25
 -2.3500000E-03    9.9999992E-25
 -2.3149999E-03    1.0000014E-24
 -2.2799999E-03    1.0000001E-24
 -2.2450001E-03    9.9999963E-25
 -2.2100001E-03    1.0000015E-24
 -2.1750000E-03    1.0000007E-24
 -2.1400000E-03    9.9999854E-25
 -2.1050000E-03    9.9999903E-25
 -2.0699999E-03    1.0000004E-24
 -2.0349999E-03    9.9999953E-25
 -2.0000001E-03    9.9999992E-25
 -1.9650001E-03    1.0000013E-24
 -1.9300000E-03    1.0000014E-24
 -1.8950000E-03    1.0000005E-24
 -1.8600000E-03    9.9999972E-25
 -1.8250000E-03    9.9999913E-25
 -1.7900000E-03    1.0000002E-24
 -1.7550000E-03    1.0000011E-24
 -1.7199999E-03    9.9999972E-25
 -1.6850000E-03    9.9999972E-25
 -1.6500000E-03    1.0000005E-24
 -1.6150000E-03    9.9999903E-25
 -1.5800000E-03    9.9999903E-25
 -1.5450000E-03    1.0000016E-24
 -1.5100000E-03    1.0000006E-24
 -1.4750001E-03    9.9999844E-25
 -1.4400000E-03    1.0000009E-24
 -1.4050000E-03    1.0000019E-24
 -1.3700000E-03    9.9999923E-25
 -1.3350000E-03    9.9999913E-25
 -1.3000000E-03    1.0000011E-24
 -1.2650000E-03    1.0000002E-24
 -1.2300001E-03    9.9999884E-25
 -1.1950000E-03    9.9999923E-25
 -1.1600000E-03    1.0000001E-24
 -1.1250000E-03    1.0000011E-24
 -1.0900000E-03    1.0000013E-24
 -1.0550000E-03    9.9999953E-25
 -1.0200000E-03    9.9999923E-25
 -9.8500005E-04    1.0000007E-24
 -9.5000002E-04    1.0000004E-24
 -9.1499998E-04    9.9999963E-25
 -8.8000001E-04    1.0000004E-24
 -8.4499997E-04    9.9999992E-25
 -8.1000000E-04    9.9999874E-25
 -7.7500002E-04    1.0000001E-24
 -7.3999999E-04    1.0000018E-24
 -7.0500001E-04    1.0000004E-24
 -6.6999998E-04    9.9999972E-25
 -6.3500000E-04    1.0000008E-24
 -6.0000003E-04    9.9999992E-25
 -5.6499999E-04    9.9999874E-25
 -5.3000002E-04    1.0000003E-24
 -4.9499999E-04    1.0000016E-24
 -4.6000001E-04    1.0000002E-24
 -4.2500001E-04    9.9999903E-25
 -3.9000000E-04    9.9999963E-25
 -3.5500000E-04    1.0000000E-24
 -3.1999999E-04    1.0000007E-24
 -2.8499999E-04    1.0000013E-24
 -2.5000001E-04    1.0000004E-24
 -2.1499999E-04    9.9999884E-25
 -1.8000000E-04    9.9999854E-25
 -1.4500000E-04    9.9999933E-25
 -1.1000000E-04    1.0000016E-24
 -7.5000004E-05    1.0000026E-24
 -3.9999999E-05    1.0000002E-24
 -4.9999999E-06    9.9999884E-25
  2.9999999E-05    1.0000004E-24
  6.5000000E-05    1.0000005E-24
  9.9999997E-05    9.9999893E-25
  1.3499999E-04    9.9999963E-25
  1.7000000E-04    1.0000012E-24
  2.0500000E-04    1.0000003E-24
  2.3999999E-04    9.9999913E-25
  2.7500000E-04    9.9999943E-25
  3.1000000E-04    1.0000002E-24
  3.4500001E-04    1.0000004E-24
  3.8000001E-04    1.0000010E-24
  4.1499999E-04    9.9999982E-25
  4.4999999E-04    9.9999874E-25
  4.8500000E-04    9.9999953E-25
  5.2000000E-04    1.0000010E-24
  5.5499998E-04    1.0000002E-24
  5.9000001E-04    9.9999982E-25
  6.2499999E-04    1.0000005E-24
  6.6000002E-04    9.9999953E-25
  6.9500000E-04    9.9999874E-25
  7.3000003E-04    1.0000022E-24
  7.6500000E-04    1.0000023E-24
  7.9999998E-04    9.9999420E-25
  8.3500001E-04    9.9999647E-25
  8.6999999E-04    1.0000078E-24
  9.0500002E-04    1.0000077E-24
  9.4000000E-04    9.9997902E-25
  9.7499997E-04    9.9998050E-25
  1.0100000E-03    1.0000213E-24
  1.0450000E-03    1.0000183E-24
  1.0800000E-03    9.9997359E-25
  1.1150000E-03    9.9997241E-25
  1.1500000E-03    1.0000346E-24
  1.1849999E-03    1.0000927E-24
  1.2200000E-03    9.9994894E-25
  1.2550000E-03    9.9984570E-25
  1.2900000E-03    9.9998976E-25
  1.3250000E-03    1.0001850E-24
  1.3600000E-03    1.0000395E-24
  1.3950000E-03    9.9957630E-25
  1.4299999E-03    9.9948302E-25
  1.4650000E-03    1.0007469E-24
  1.5000000E-03    1.0011675E-24
  1.5350000E-03    9.9792541E-25
  1.5700000E-03    9.9752260E-25
  1.6050000E-03    1.0028416E-24
  1.6400000E-03    1.0041270E-24
  1.6749999E-03    9.9480813E-25
  1.7100000E-03    9.8905536E-25
  1.7450000E-03    1.0065569E-24
  1.7800000E-03    1.0197874E-24
  1.8150000E-03    9.8929922E-25
  1.8500000E-03    9.6861499E-25
  1.8850000E-03    1.0179895E-24
  1.9200000E-03    1.0524008E-24
  1.9550000E-03    9.7979305E-25
  1.9900000E-03    9.0730226E-25
  2.0250001E-03    1.0082498E-24
  2.0600001E-03    1.1408085E-24
  2.0949999E-03    1.0262642E-24
  2.1299999E-03    7.6855819E-25
  2.1650000E-03    8.7774531E-25
  2.2000000E-03    1.3485865E-24
  2.2350000E-03    1.3066915E-24
  2.2700001E-03    5.0096109E-25
  2.3050001E-03    3.1666262E-25
  2.3399999E-03    1.6776218E-24
  2.3749999E-03    2.3889187E-24
  2.4100000E-03    3.1432774E-25
  2.4450000E-03   -1.4143153E-24
  2.4800000E-03    1.5588127E-24
  2.5150001E-03    5.2580258E-24
  2.5500001E-03    1.3307259E-24
  2.5849999E-03   -5.8576910E-24
  2.6199999E-03   -1.4192087E-24
  2.6550000E-03    1.1384418E-23
  2.6900000E-03    7.7045528E-24
  2.7250000E-03   -1.3493068E-23
  2.7600001E-03   -1.3674453E-23
  2.7950001E-03    1.9485634E-23
  2.8299999E-03    2.8935579E-23
  2.8649999E-03   -1.9233928E-23
  2.9000000E-03   -4.8368659E-23
  2.9350000E-03    1.6750802E-23
  2.9700000E-03    8.2519950E-23
  3.0050001E-03    3.0341484E-24
  3.0400001E-03   -1.2278144E-22
  3.0749999E-03   -4.0545595E-23
  3.1099999E-03    1.7776861E-22
  3.1450000E-03    1.2438240E-22
  3.1800000E-03   -2.2298018E-22
  3.2150000E-03   -2.6115277E-22
  3.2500001E-03    2.5145465E-22
  3.2850001E-03    4.8601657E-22
  3.3199999E-03   -2.2165376E-22
  3.3549999E-03   -8.0887566E-22
  3.3900000E-03    6.8059448E-23
  3.4250000E-03    1.2332274E-21
  3.4600000E-03    3.1858757E-22
  3.4950001E-03   -1.7124159E-21
  3.5300001E-03   -1.0620949E-21
  3.5649999E-03    2.1376716E-21
  3.5999999E-03    2.3014029E-21
  3.6350000E-03   -2.3323119E-21
  3.6700000E-03   -4.2116814E-21
  3.7050000E-03    1.8860281E-21
  3.7400001E-03    6.7954648E-21
  3.7750001E-03   -2.6334520E-22
  3.8099999E-03   -9.9138138E-21
  3.8449999E-03   -3.2547283E-21
  3.8800000E-03    1.3135013E-20
  3.9149998E-03    9.5907513E-21
  3.9499998E-03   -1.5246041E-20
  3.9849998E-03   -1.9459458E-20
  4.0199999E-03    1.4400592E-20
  4.0549999E-03    3.3304854E-20
  4.0899999E-03   -7.7806644E-21
  4.1250000E-03   -5.0594250E-20
  4.1600000E-03   -8.6140763E-21
  4.1950000E-03    6.8708517E-20
  4.2300001E-03    3.9088013E-20
  4.2650001E-03   -8.2324970E-20
  4.3000001E-03   -8.7742776E-20
  4.3350002E-03    8.1796181E-20
  4.3700002E-03    1.5658216E-19
  4.4049998E-03   -5.2629405E-20
  4.4399998E-03   -2.4141987E-19
  4.4749998E-03   -2.3341542E-20
  4.5099999E-03    3.2941108E-19
  4.5449999E-03    1.6682128E-19
  4.5799999E-03   -3.9450446E-19
  4.6150000E-03   -3.9627643E-19
  4.6500000E-03    3.9167015E-19
  4.6850001E-03    7.1709890E-19
  4.7200001E-03   -2.5597107E-19
  4.7550001E-03   -1.1098780E-18
  4.7900002E-03   -9.6250019E-20
  4.8250002E-03    1.5117212E-18
  4.8600002E-03    7.5043929E-19
  4.8949998E-03   -1.8001853E-18
  4.9299998E-03   -1.7792101E-18
  4.9649999E-03    1.7749118E-18
  4.9999999E-03    3.1906209E-18
  5.0349999E-03   -1.1619919E-18
  5.0700000E-03   -4.8820498E-18
  5.1050000E-03   -3.7563838E-19
  5.1400000E-03    6.5716824E-18
  5.1750001E-03    3.1737032E-18
  5.2100001E-03   -7.7360843E-18
  5.2450001E-03   -7.4701978E-18
  5.2800002E-03    7.5704935E-18
  5.3150002E-03    1.3241779E-17
  5.3500002E-03   -5.0049986E-18
  5.3849998E-03   -2.0003007E-17
  5.4199998E-03   -1.1833298E-18
  5.4549999E-03    2.6608849E-17
  5.4899999E-03    1.2192152E-17
  5.5249999E-03   -3.1027505E-17
  5.5600000E-03   -2.8702965E-17
  5.5950000E-03    3.0302081E-17
  5.6300000E-03    5.0397948E-17
  5.6650001E-03   -2.0709246E-17
  5.7000001E-03   -7.5308257E-17
  5.7350001E-03   -1.8729849E-18
  5.7700002E-03    9.9192422E-17
  5.8050002E-03    4.1023225E-17
  5.8400002E-03   -1.1503103E-16
  5.8749998E-03   -9.8529804E-17
  5.9099998E-03    1.1296702E-16
  5.9449999E-03    1.7261221E-16
  5.9799999E-03   -8.1130655E-17
  6.0149999E-03   -2.5618260E-16
  6.0500000E-03    7.1596089E-18
  6.0850000E-03    3.3494057E-16
  6.1200000E-03    1.1880360E-16
  6.1550001E-03   -3.8678844E-16
  6.1900001E-03   -3.0031540E-16
  6.2250001E-03    3.8241325E-16
  6.2600002E-03    5.3017105E-16
  6.2950002E-03   -2.8772444E-16
  6.3299998E-03   -7.8499276E-16
  6.3649998E-03    6.9395954E-17
  6.3999998E-03    1.0224359E-15
  6.4349999E-03    2.9710480E-16
  6.4699999E-03   -1.1800476E-15
  6.5049999E-03   -8.1768410E-16
  6.5400000E-03    1.1773396E-15
  6.5750000E-03    1.4661994E-15
  6.6100000E-03   -9.2568324E-16
  6.6450001E-03   -2.1754595E-15
  6.6800001E-03    3.4326855E-16
  6.7150001E-03    2.8306670E-15
  6.7500002E-03    6.2550996E-16
  6.7850002E-03   -3.2691251E-15
  6.8199998E-03   -1.9826964E-15
  6.8549998E-03    3.2926007E-15
  6.8899998E-03    3.6510940E-15
  6.9249999E-03   -2.6914205E-15
  6.9599999E-03   -5.4585268E-15
  6.9949999E-03    1.2760938E-15
  7.0300000E-03    7.1190138E-15
  7.0650000E-03    1.0661165E-15
  7.1000000E-03   -8.2440031E-15
  7.1350001E-03   -4.3158539E-15
  7.1700001E-03    8.3754940E-15
  7.2050001E-03    8.2745539E-15
  7.2400002E-03   -7.0470990E-15
  7.2750002E-03   -1.2517018E-14
  7.3099998E-03    3.8725656E-15
  7.3449998E-03    1.6389173E-14
  7.3799998E-03    1.3583760E-15
  7.4149999E-03   -1.9024660E-14
  7.4499999E-03   -8.5507053E-15
  7.4850000E-03    1.9444969E-14
  7.5200000E-03    1.7212882E-14
  7.5550000E-03   -1.6694904E-14
  7.5900001E-03   -2.6395573E-14
  7.6250001E-03    1.0005164E-14
  7.6600001E-03    3.4667127E-14
  7.6950002E-03    9.6044198E-16
  7.7300002E-03   -4.0205473E-14
  7.7650002E-03   -1.5861647E-14
  7.7999998E-03    4.1026884E-14
  7.8349998E-03    3.3541573E-14
  7.8699999E-03   -3.5236787E-14
  7.9049999E-03   -5.1862001E-14
  7.9399999E-03    2.1509675E-14
  7.9750000E-03    6.7816690E-14
  8.0100000E-03    5.0980758E-16
  8.0450000E-03   -7.7741639E-14
  8.0800001E-03   -2.9752649E-14
  8.1150001E-03    7.7788667E-14
  8.1500001E-03    6.3411475E-14
  8.1850002E-03   -6.4596135E-14
  8.2200002E-03   -9.6783645E-14
  8.2550002E-03    3.6241480E-14
  8.2900003E-03    1.2358624E-13
  8.3250003E-03    6.9098419E-15
  8.3600003E-03   -1.3668926E-13
  8.3950004E-03   -6.1423401E-14
  8.4300004E-03    1.2922804E-13
  8.4650004E-03    1.2032149E-13
  8.5000005E-03   -9.6228770E-14
  8.5349996E-03   -1.7338613E-13
  8.5699996E-03    3.6222619E-14
  8.6049996E-03    2.0796108E-13
  8.6399997E-03    4.6918175E-14
  8.6749997E-03   -2.1100615E-13
  8.7099997E-03   -1.4292295E-13
  8.7449998E-03    1.7185710E-13
  8.7799998E-03    2.3503917E-13
  8.8149998E-03   -8.5445370E-14
  8.8499999E-03   -3.0130382E-13
  8.8849999E-03   -4.4246823E-14
  8.9199999E-03    3.1775445E-13
  8.9550000E-03    2.0173232E-13
  8.9900000E-03   -2.6319054E-13
  9.0250000E-03   -3.5917707E-13
  9.0600001E-03    1.2533238E-13
  9.0950001E-03    4.7833108E-13
  9.1300001E-03    9.2917407E-14
  9.1650002E-03   -5.1531208E-13
  9.2000002E-03   -3.6825133E-13
  9.2350002E-03    4.2885679E-13
  9.2700003E-03    6.5429395E-13
  9.3050003E-03   -1.9117912E-13
  9.3400003E-03   -8.8361442E-13
  9.3750004E-03   -1.9986489E-13
  9.4100004E-03    9.7584798E-13
  9.4450004E-03    7.1098834E-13
  9.4799995E-03   -8.5070487E-13
  9.5149996E-03   -1.2665323E-12
  9.5499996E-03    4.4756194E-13
  9.5849996E-03    1.7503868E-12
  9.6199997E-03    2.5337482E-13
  9.6549997E-03   -2.0170098E-12
  9.6899997E-03   -1.2108911E-12
  9.7249998E-03    1.9134791E-12
  9.7599998E-03    2.3092311E-12
  9.7949998E-03   -1.3111385E-12
  9.8299999E-03   -3.3561756E-12
  9.8649999E-03    1.4341794E-13
  9.8999999E-03    4.0977321E-12
  9.9350000E-03    1.5568371E-12
  9.9700000E-03   -4.2517292E-12
  1.0005000E-02   -3.6286738E-12
  1.0040000E-02    3.5589743E-12
  1.0075000E-02    5.7724520E-12
  1.0110000E-02   -1.8480601E-12
  1.0145000E-02   -7.5668300E-12
  1.0180000E-02   -8.9850832E-13
  1.0215000E-02    8.5165833E-12
  1.0250000E-02    4.4879608E-12
  1.0285000E-02   -8.1332528E-12
  1.0320000E-02   -8.4883888E-12
  1.0355000E-02    6.0406142E-12
  1.0390000E-02    1.2243117E-11
  1.0425000E-02   -2.0877354E-12
  1.0460000E-02   -1.4935140E-11
  1.0495000E-02   -3.5475028E-12
  1.0530000E-02    1.5709180E-11
  1.0565000E-02    1.0297074E-11
  1.0600000E-02   -1.3836136E-11
  1.0635000E-02   -1.7204847E-11
  1.0670000E-02    8.8986336E-12
  1.0705000E-02    2.3011157E-11
  1.0740000E-02   -9.6380033E-13
  1.0775000E-02   -2.6324410E-11
  1.0810000E-02   -9.2966980E-12
  1.0845000E-02    2.5869345E-11
  1.0880000E-02    2.0582107E-11
  1.0915000E-02   -2.0777463E-11
  1.0950000E-02   -3.1066667E-11
  1.0985000E-02    1.0864996E-11
  1.1020000E-02    3.8639474E-11
  1.1055000E-02    3.1636460E-12
  1.1090000E-02   -4.1261643E-11
  1.1125000E-02   -1.9645580E-11
  1.1160000E-02    3.7399975E-11
  1.1195000E-02    3.6078966E-11
  1.1230000E-02   -2.6458294E-11
  1.1265000E-02   -4.9456068E-11
  1.1300000E-02    9.1003463E-12
  1.1335000E-02    5.6782863E-11
  1.1370000E-02    1.2639075E-11
  1.1405000E-02   -5.5693353E-11
  1.1440000E-02   -3.5505800E-11
  1.1475000E-02    4.5059442E-11
  1.1510000E-02    5.5472738E-11
  1.1545000E-02   -2.5463912E-11
  1.1580000E-02   -6.8466399E-11
  1.1615000E-02   -6.3501781E-13
  1.1650000E-02    7.1239133E-11
  1.1685000E-02    2.9149794E-11
  1.1720000E-02   -6.2186443E-11
  1.1755000E-02   -5.5017612E-11
  1.1790000E-02    4.1910263E-11
  1.1825000E-02    7.3163545E-11
  1.1860000E-02   -1.3373347E-11
  1.1895000E-02   -7.9621879E-11
  1.1930000E-02   -1.8490870E-11
  1.1965000E-02    7.2538656E-11
  1.2000000E-02    4.7688676E-11
  1.2035000E-02   -5.2776523E-11
  1.2070000E-02   -6.8410201E-11
  1.2105000E-02    2.3956316E-11
  1.2140000E-02    7.6367523E-11
  1.2175000E-02    8.1471418E-12
  1.2210000E-02   -6.9940068E-11
  1.2245000E-02   -3.6865341E-11
  1.2280000E-02    5.0704132E-11
  1.2315000E-02    5.6232276E-11
  1.2350000E-02   -2.3105221E-11
  1.2385000E-02   -6.2383022E-11
  1.2420000E-02   -6.5399713E-12
  1.2455000E-02    5.4455489E-11
  1.2490000E-02    3.1415186E-11
  1.2525000E-02   -3.4972369E-11
  1.2560000E-02   -4.5935877E-11
  1.2595000E-02    9.3021346E-12
  1.2630000E-02    4.7319555E-11
  1.2665000E-02    1.5858728E-11
  1.2700000E-02   -3.6281925E-11
  1.2735000E-02   -3.4448638E-11
  1.2770000E-02    1.6443345E-11
  1.2805000E-02    4.2316005E-11
  1.2840000E-02    6.5693891E-12
  1.2875000E-02   -3.8274845E-11
  1.2910000E-02   -2.6693979E-11
  1.2945000E-02    2.4322537E-11
  1.2980000E-02    3.9169858E-11
  1.3015000E-02   -4.9386328E-12
  1.3050000E-02   -4.2164407E-11
  1.3085000E-02   -1.5176424E-11
  1.3120000E-02    3.6135258E-11
  1.3155000E-02    3.1928297E-11
  1.3190000E-02   -2.3574212E-11
  1.3225000E-02   -4.3055379E-11
  1.3260000E-02    7.6410631E-12
  1.3295000E-02    4.8096364E-11
  1.3330000E-02    8.4993488E-12
  1.3365000E-02   -4.9083210E-11
  1.3400000E-02   -2.4592320E-11
  1.3435000E-02    4.6867486E-11
  1.3470000E-02    4.1037028E-11
  1.3505000E-02   -4.1420669E-11
  1.3540000E-02   -5.8813815E-11
  1.3575000E-02    3.0321558E-11
  1.3610000E-02    7.6002635E-11
  1.3645000E-02   -1.2995200E-11
  1.3680000E-02   -9.1833846E-11
  1.3715000E-02   -1.3881007E-11
  1.3750000E-02    1.0022463E-10
  1.3785000E-02    4.8549761E-11
  1.3820000E-02   -9.6367136E-11
  1.3855000E-02   -8.7942126E-11
  1.3890000E-02    7.3497652E-11
  1.3925000E-02    1.2062509E-10
  1.3960000E-02   -3.5262127E-11
  1.3995000E-02   -1.4136373E-10
  1.4030000E-02   -1.7539678E-11
  1.4065000E-02    1.3839087E-10
  1.4100000E-02    7.1223055E-11
  1.4135000E-02   -1.1267463E-10
  1.4170000E-02   -1.1814810E-10
  1.4205000E-02    6.1893962E-11
  1.4240000E-02    1.3988931E-10
  1.4275000E-02   -4.5387635E-12
  1.4310000E-02   -1.3983076E-10
  1.4345000E-02   -5.5668570E-11
  1.4380000E-02    1.0953292E-10
  1.4415000E-02    9.6402664E-11
  1.4450000E-02   -6.6556427E-11
  1.4485000E-02   -1.1919696E-10
  1.4520000E-02    1.1642614E-11
  1.4555000E-02    1.0678966E-10
  1.4590000E-02    2.1291992E-11
  1.4625000E-02   -8.8794791E-11
  1.4660000E-02   -4.5532977E-11
  1.4695000E-02    5.6429656E-11
  1.4730000E-02    3.9230893E-11
  1.4765000E-02   -4.3278551E-11
  1.4800000E-02   -3.0294645E-11
  1.4835000E-02    3.4748648E-11
  1.4870000E-02    2.0293669E-12
  1.4905000E-02   -6.9800749E-11
  1.4940000E-02   -1.3326532E-11
  1.4975000E-02    9.4610701E-11
  1.5010000E-02    3.3207791E-11
  1.5045000E-02   -1.2989147E-10
  1.5080000E-02   -9.9782099E-11
  1.5115000E-02    1.1373675E-10
  1.5150000E-02    1.5069214E-10
  1.5185000E-02   -9.0162357E-11
  1.5220000E-02   -2.2833567E-10
  1.5255000E-02   -1.3534346E-11
  1.5290000E-02    2.3169258E-10
  1.5325000E-02    1.1112003E-10
  1.5360000E-02   -2.0199596E-10
  1.5395000E-02   -2.2670987E-10
  1.5430000E-02    7.7384182E-11
  1.5465000E-02    2.4966590E-10
  1.5500000E-02    2.7826179E-11
  1.5535000E-02   -2.6297198E-10
  1.5570000E-02   -1.9097056E-10
  1.5605000E-02    1.4955145E-10
  1.5640000E-02    2.6553784E-10
  1.5675001E-02   -2.3019010E-11
  1.5710000E-02   -3.0391298E-10
  1.5745001E-02   -1.6127076E-10
  1.5780000E-02    1.9792651E-10
  1.5814999E-02    2.3435656E-10
  1.5850000E-02   -1.0800860E-10
  1.5884999E-02   -3.0742431E-10
  1.5920000E-02   -6.4633868E-11
  1.5954999E-02    2.4204061E-10
  1.5990000E-02    1.5430353E-10
  1.6024999E-02   -1.7308696E-10
  1.6060000E-02   -2.4942234E-10
  1.6094999E-02    3.0329326E-12
  1.6130000E-02    1.9009787E-10
  1.6164999E-02    6.7514307E-11
  1.6200000E-02   -1.4997265E-10
  1.6235000E-02   -1.5827041E-10
  1.6270000E-02    2.5109009E-11
  1.6305000E-02    1.4209281E-10
  1.6340001E-02    5.0016127E-11
  1.6375000E-02   -1.2028749E-10
  1.6410001E-02   -1.4616827E-10
  1.6445000E-02    1.5593488E-12
  1.6480001E-02    1.1746820E-10
  1.6515000E-02    4.1178137E-11
  1.6550001E-02   -1.1005368E-10
  1.6585000E-02   -1.0918231E-10
  1.6620001E-02    4.4429804E-11
  1.6655000E-02    1.3007478E-10
  1.6690001E-02    3.6084555E-11
  1.6725000E-02   -9.4812519E-11
  1.6759999E-02   -9.2598346E-11
  1.6795000E-02    1.6733363E-11
  1.6829999E-02    8.6630939E-11
  1.6865000E-02    4.5951045E-11
  1.6899999E-02   -4.7582195E-11
  1.6935000E-02   -8.4751213E-11
  1.6969999E-02   -4.6274395E-12
  1.7005000E-02    1.2349945E-10
  1.7039999E-02    1.3404840E-10
  1.7075000E-02   -2.5120113E-11
  1.7109999E-02   -1.5971412E-10
  1.7145000E-02   -5.8816320E-11
  1.7180000E-02    1.7022893E-10
  1.7215000E-02    2.0582872E-10
  1.7250000E-02   -1.5481377E-11
  1.7285001E-02   -1.6687024E-10
  1.7320000E-02   -3.6014045E-12
  1.7355001E-02    2.4512015E-10
  1.7390000E-02    1.9748282E-10
  1.7425001E-02   -9.9270620E-11
  1.7460000E-02   -2.2318211E-10
  1.7495001E-02    2.9013471E-12
  1.7530000E-02    2.6613717E-10
  1.7565001E-02    2.2843816E-10
  1.7600000E-02   -1.7903049E-11
  1.7635001E-02   -1.1878139E-10
  1.7670000E-02    5.2791715E-11
  1.7704999E-02    2.5047633E-10
  1.7740000E-02    1.9943808E-10
  1.7774999E-02   -4.1035623E-11
  1.7810000E-02   -1.6291714E-10
  1.7844999E-02   -1.6342349E-11
  1.7880000E-02    1.9745272E-10
  1.7914999E-02    1.9653641E-10
  1.7950000E-02    2.9676357E-12
  1.7984999E-02   -8.6935750E-11
  1.8020000E-02    6.0576086E-11
  1.8054999E-02    2.1367343E-10
  1.8090000E-02    1.4410627E-10
  1.8124999E-02   -2.2583890E-11
  1.8160000E-02   -4.5778561E-11
  1.8195000E-02    4.3008930E-11
  1.8230001E-02    6.0658110E-11
  1.8265000E-02    2.2557040E-11
  1.8300001E-02    6.2820561E-11
  1.8335000E-02    1.0549286E-10
  1.8370001E-02   -1.4929896E-11
  1.8405000E-02   -1.4644647E-10
  1.8440001E-02    3.1672952E-12
  1.8475000E-02    2.6103814E-10
  1.8510001E-02    1.4286579E-10
  1.8545000E-02   -2.7509434E-10
  1.8580001E-02   -3.2250425E-10
  1.8615000E-02    1.7101143E-10
  1.8650001E-02    4.7090837E-10
  1.8685000E-02    6.2239346E-11
  1.8719999E-02   -4.8221921E-10
  1.8755000E-02   -3.5949507E-10
  1.8789999E-02    2.2564937E-10
  1.8825000E-02    3.6290945E-10
  1.8859999E-02   -2.1802686E-10
  1.8895000E-02   -7.0904937E-10
  1.8929999E-02   -3.1857048E-10
  1.8965000E-02    5.2216426E-10
  1.8999999E-02    6.0215682E-10
  1.9035000E-02   -3.1115660E-10
  1.9069999E-02   -9.2920044E-10
  1.9105000E-02   -2.7320804E-10
  1.9140000E-02    6.9097961E-10
  1.9175000E-02    3.7981812E-10
  1.9210000E-02   -8.5645308E-10
  1.9245001E-02   -1.1051021E-09
  1.9280000E-02    5.4423199E-11
  1.9315001E-02    7.9220530E-10
  1.9350000E-02    2.4275457E-13
  1.9385001E-02   -9.9743536E-10
  1.9420000E-02   -7.0834705E-10
  1.9455001E-02    3.4863346E-10
  1.9490000E-02    7.1851164E-10
  1.9525001E-02    1.5366756E-11
  1.9560000E-02   -8.3287938E-10
  1.9595001E-02   -7.8348678E-10
  1.9630000E-02    1.1078621E-10
  1.9664999E-02    6.6572337E-10
  1.9700000E-02   -1.8004633E-11
  1.9734999E-02   -1.1742379E-09
  1.9770000E-02   -1.1125835E-09
  1.9804999E-02    3.0009489E-10
  1.9840000E-02    1.0493059E-09
  1.9874999E-02   -4.2744537E-11
  1.9910000E-02   -1.2631757E-09
  1.9944999E-02   -6.7670280E-10
  1.9980000E-02    8.0333123E-10
  2.0014999E-02    9.9878150E-10
  2.0050000E-02   -2.3792052E-10
  2.0085000E-02   -1.0999577E-09
  2.0120000E-02   -5.2060106E-10
  2.0155000E-02    5.5098925E-10
  2.0190001E-02    6.3925615E-10
  2.0225000E-02   -3.5774331E-10
  2.0260001E-02   -1.1674935E-09
  2.0295000E-02   -6.6172029E-10
  2.0330001E-02    6.8005113E-10
  2.0365000E-02    1.0534401E-09
  2.0400001E-02   -1.3496500E-10
  2.0435000E-02   -1.0149124E-09
  2.0470001E-02   -1.2181471E-10
  2.0505000E-02    1.1357265E-09
  2.0540001E-02    7.8742207E-10
  2.0575000E-02   -5.6487964E-10
  2.0609999E-02   -7.4658441E-10
  2.0645000E-02    5.1410537E-10
  2.0679999E-02    9.7968533E-10
  2.0715000E-02   -2.7447433E-10
  2.0749999E-02   -9.9674502E-10
  2.0785000E-02    5.6759875E-11
  2.0819999E-02    8.4090090E-10
  2.0855000E-02    1.8835730E-10
  2.0889999E-02   -3.2496347E-10
  2.0925000E-02    2.2857317E-10
  2.0959999E-02    8.6562041E-10
  2.0995000E-02    5.9915717E-10
  2.1029999E-02   -2.4852245E-10
  2.1065000E-02   -3.3611738E-10
  2.1100000E-02    4.8467197E-10
  2.1135001E-02    6.0136696E-10
  2.1170000E-02   -1.0784623E-10
  2.1205001E-02   -1.6056341E-10
  2.1240000E-02    1.6930342E-10
  2.1275001E-02    9.9632691E-11
  2.1310000E-02    3.0160577E-10
  2.1345001E-02    5.3698052E-10
  2.1380000E-02    3.7074128E-11
  2.1415001E-02   -2.6437527E-10
  2.1450000E-02    1.2929084E-10
  2.1485001E-02    4.0411813E-10
  2.1520000E-02    3.8753520E-10
  2.1555001E-02   -2.7453472E-11
  2.1590000E-02   -6.2361294E-10
  2.1624999E-02   -1.0853188E-10
  2.1660000E-02    8.4733787E-10
  2.1694999E-02    2.9798988E-10
  2.1730000E-02   -6.0809785E-10
  2.1764999E-02   -2.3109532E-10
  2.1800000E-02    3.0243846E-10
  2.1834999E-02    3.1024008E-10
  2.1870000E-02    1.8212876E-10
  2.1904999E-02   -2.4198799E-10
  2.1940000E-02   -3.7185355E-10
  2.1974999E-02   -1.6161841E-11
  2.2010000E-02   -1.6402012E-10
  2.2045000E-02   -2.2256796E-10
  2.2080000E-02    9.8781053E-11
  2.2115000E-02   -5.7599803E-10
  2.2150001E-02   -8.6892876E-10
  2.2185000E-02    6.1348981E-10
  2.2220001E-02    8.1177409E-10
  2.2255000E-02   -9.0010299E-10
  2.2290001E-02   -1.0301315E-09
  2.2325000E-02    1.5311662E-10
  2.2360001E-02    3.7490266E-10
  2.2395000E-02   -5.3342625E-12
  2.2430001E-02   -7.1429235E-10
  2.2465000E-02   -9.9917186E-10
  2.2500001E-02    1.5658541E-10
  2.2535000E-02    4.2472098E-10
  2.2569999E-02   -7.2716722E-10
  2.2605000E-02   -3.7513692E-10
  2.2639999E-02    5.2000739E-12
  2.2675000E-02   -1.1770166E-09
  2.2709999E-02   -4.9535803E-10
  2.2745000E-02    8.1512136E-10
  2.2779999E-02   -7.5897605E-10
  2.2815000E-02   -1.2481908E-09
  2.2849999E-02    7.5775752E-10
  2.2885000E-02    4.8482363E-10
  2.2919999E-02   -8.1442103E-10
  2.2955000E-02   -3.6799611E-10
  2.2990000E-02   -4.7691090E-10
  2.3025000E-02   -2.8439273E-10
  2.3060000E-02    8.8461161E-10
  2.3095001E-02   -4.2282070E-10
  2.3130000E-02   -1.5000765E-09
  2.3165001E-02    6.2132866E-10
  2.3200000E-02    5.9424338E-10
  2.3235001E-02   -1.2477046E-09
  2.3270000E-02    2.7343083E-11
  2.3305001E-02    4.8316429E-10
  2.3340000E-02   -1.1404785E-09
  2.3375001E-02    6.1353082E-11
  2.3410000E-02    8.0017776E-10
  2.3445001E-02   -1.1366905E-09
  2.3480000E-02   -4.2843154E-10
  2.3514999E-02    6.5951944E-10
  2.3550000E-02   -7.7109086E-10
  2.3584999E-02    4.8383114E-10
  2.3620000E-02    1.7414516E-09
  2.3654999E-02   -1.3844061E-09
  2.3690000E-02   -1.3462164E-09
  2.3724999E-02    2.1703206E-09
  2.3760000E-02    7.1890499E-10
  2.3794999E-02   -1.9896353E-09
  2.3830000E-02   -8.1782270E-10
  2.3864999E-02    2.4316027E-10
  2.3900000E-02    9.1409696E-10
  2.3934999E-02    1.0033581E-09
  2.3970000E-02   -1.8842645E-09
  2.4005000E-02   -1.8529024E-09
  2.4040001E-02    2.0572350E-09
  2.4075000E-02    1.0328054E-09
  2.4110001E-02   -1.7468155E-09
  2.4145000E-02    4.7668730E-10
  2.4180001E-02    1.3655139E-09
  2.4215000E-02   -4.6622656E-10
  2.4250001E-02    4.4590170E-10
  2.4285000E-02    6.4047923E-10
  2.4320001E-02   -1.0136045E-09
  2.4355000E-02   -9.0960135E-11
  2.4390001E-02    3.1958805E-10
  2.4425000E-02   -9.4549146E-10
  2.4460001E-02   -8.8668864E-11
  2.4495000E-02   -3.3896247E-10
  2.4529999E-02   -1.8560614E-09
  2.4565000E-02    7.4515882E-10
  2.4599999E-02    2.5087703E-09
  2.4635000E-02   -7.0085981E-10
  2.4669999E-02   -1.6223491E-09
  2.4705000E-02    5.9205324E-10
  2.4739999E-02    9.0140823E-10
  2.4775000E-02    7.8774604E-10
  2.4809999E-02    1.8536682E-10
  2.4845000E-02   -2.0738782E-09
  2.4879999E-02   -1.5257904E-09
  2.4915000E-02    1.1275404E-09
  2.4950000E-02    8.2695878E-10
  2.4985000E-02   -3.5015035E-10
  2.5020000E-02   -5.0357180E-10
  2.5055001E-02   -1.3348516E-09
  2.5090000E-02   -6.1620259E-10
  2.5125001E-02    1.5460754E-09
  2.5160000E-02    6.6306299E-10
  2.5195001E-02   -1.2070065E-09
  2.5230000E-02    1.0064728E-10
  2.5265001E-02    1.3296043E-09
  2.5300000E-02   -2.8553446E-10
  2.5335001E-02   -1.2325195E-09
  2.5370000E-02    3.0081958E-11
  2.5405001E-02    1.9444894E-10
  2.5440000E-02   -1.2057774E-09
  2.5474999E-02   -7.7318646E-10
  2.5510000E-02    1.0641211E-09
  2.5544999E-02    9.6848651E-10
  2.5580000E-02   -4.1565731E-10
  2.5614999E-02   -8.0567547E-10
  2.5650000E-02   -8.0132073E-12
  2.5684999E-02    1.1344399E-09
  2.5720000E-02    1.5888332E-10
  2.5754999E-02   -2.2601165E-09
  2.5790000E-02   -8.0226592E-10
  2.5824999E-02    2.2313980E-09
  2.5860000E-02    5.4978139E-10
  2.5895000E-02   -1.3835166E-09
  2.5930000E-02   -1.6311792E-10
  2.5965000E-02   -1.0139721E-09
  2.6000001E-02   -1.2111840E-09
  2.6035000E-02    2.7422786E-09
  2.6070001E-02    2.2493334E-09
  2.6105000E-02   -2.1047775E-09
  2.6140001E-02   -1.1194939E-09
  2.6175000E-02    6.7478878E-10
  2.6210001E-02   -9.9904562E-10
  2.6245000E-02    3.8552037E-10
  2.6280001E-02    1.4936400E-09
  2.6315000E-02   -1.8702699E-09
  2.6350001E-02   -1.3607923E-09
  2.6385000E-02    1.8221571E-09
  2.6419999E-02   -5.4911792E-10
  2.6455000E-02   -2.0338302E-09
  2.6489999E-02    9.4471919E-10
  2.6525000E-02    4.8609117E-10
  2.6559999E-02   -1.3839682E-09
  2.6595000E-02    9.0179364E-10
  2.6629999E-02    1.2640223E-09
  2.6665000E-02   -1.1507876E-09
  2.6699999E-02   -1.1691476E-10
  2.6735000E-02    1.2921945E-09
  2.6769999E-02   -2.8034094E-10
  2.6805000E-02    3.7719136E-10
  2.6839999E-02    8.2816176E-10
  2.6875000E-02   -2.3058944E-09
  2.6910000E-02   -1.8071895E-09
  2.6945001E-02    1.5644439E-09
  2.6980000E-02   -1.1030347E-09