 -4.8000002E-03    1.0000000E-24
 -4.7650002E-03    1.0000002E-24
 -4.7300002E-03    1.0000001E-24
 -4.6950001E-03    1.0000001E-24
 -4.6600001E-03    1.0000003E-24
 -4.6250001E-03    1.0000001E-24
 -4.5900000E-03    9.9999992E-25
 -4.5550000E-03    1.0000003E-24
 -4.5200000E-03    1.0000001E-24
 -4.4849999E-03    9.9999953E-25
 -4.4499999E-03    1.0000002E-24
 -4.4149999E-03    1.0000007E-24
 -4.3799998E-03    1.0000003E-24
 -4.3449998E-03    1.0000000E-24
 -4.3100002E-03    1.0000001E-24
 -4.2750002E-03    1.0000000E-24
 -4.2400002E-03    1.0000000E-24
 -4.2050001E-03    1.0000001E-24
 -4.1700001E-03    9.9999982E-25
 -4.1350001E-03    1.0000003E-24
 -4.1000000E-03    1.0000009E-24
 -4.0650000E-03    1.0000002E-24
 -4.0300000E-03    9.9999943E-25
 -3.9949999E-03    9.9999963E-25
 -3.9599999E-03    1.0000001E-24
 -3.9249999E-03    1.0000000E-24
 -3.8900001E-03    9.9999992E-25
 -3.8550000E-03    1.0000000E-24
 -3.8200000E-03    1.0000005E-24
 -3.7849999E-03    1.0000008E-24
 -3.7499999E-03    9.9999992E-25
 -3.7150001E-03    9.9999923E-25
 -3.6800001E-03    9.9999992E-25
 -3.6450000E-03    1.0000007E-24
 -3.6100000E-03    1.0000004E-24
 -3.5750000E-03    9.9999982E-25
 -3.5399999E-03    1.0000002E-24
 -3.5049999E-03    1.0000004E-24
 -3.4700001E-03    9.9999982E-25
 -3.4350001E-03    9.9999953E-25
 -3.4000000E-03    9.9999992E-25
 -3.3650000E-03    1.0000003E-24
 -3.3300000E-03    1.0000008E-24
 -3.2949999E-03    1.0000006E-24
 -3.2599999E-03    9.9999953E-25
 -3.2250001E-03    9.9999943E-25
 -3.1900001E-03    1.0000007E-24
 -3.1550000E-03    1.0000004E-24
 -3.1200000E-03    9.9999884E-25
 -3.0850000E-03    1.0000000E-24
 -3.0499999E-03    1.0000015E-24
 -3.0149999E-03    1.0000001E-24
 -2.9800001E-03    9.9999933E-25
 -2.9450001E-03    1.0000007E-24
 -2.9100000E-03    1.0000008E-24
 -2.8750000E-03    9.9999933E-25
 -2.8400000E-03    9.9999972E-25
 -2.8049999E-03    1.0000002E-24
 -2.7699999E-03    9.9999992E-25
 -2.7350001E-03    1.0000001E-24
 -2.7000001E-03    1.0000006E-24
 -2.6650000E-03    9.9999992E-25
 -2.6300000E-03    9.9999903E-25
 -2.5950000E-03    9.9999992E-25
 -2.5599999E-03    1.0000009E-24
 -2.5249999E-03    1.0000006E-24
 -2.4900001E-03    9.9999992E-25
 -2.4550001E-03    1.0000000E-24
 -2.4200000E-03    1.0000006E-24
 -2.3850000E-03    1.0000009E-24
 -2.3500000E-03    1.0000002E-24
 -2.3149999E-03    9.9999943E-25
 -2.2799999E-03    9.9999943E-25
 -2.2450001E-03    9.9999992E-25
 -2.2100001E-03    9.9999982E-25
 -2.1750000E-03    9.9999982E-25
 -2.1400000E-03    1.0000000E-24
 -2.1050000E-03    1.0000001E-24
 -2.0699999E-03    1.0000003E-24
 -2.0349999E-03    1.0000006E-24
 -2.0000001E-03    1.0000006E-24
 -1.9650001E-03    1.0000000E-24
 -1.9300000E-03    9.9999953E-25
 -1.8950000E-03    1.0000000E-24
 -1.8600000E-03    1.0000005E-24
 -1.8250000E-03    1.0000000E-24
 -1.7900000E-03    9.9999982E-25
 -1.7550000E-03    1.0000010E-24
 -1.7199999E-03    1.0000012E-24
 -1.6850000E-03    9.9999982E-25
 -1.6500000E-03    9.9999884E-25
 -1.6150000E-03    9.9999972E-25
 -1.5800000E-03    1.0000006E-24
 -1.5450000E-03    9.9999982E-25
 -1.5100000E-03    9.9999923E-25
 -1.4750001E-03    1.0000005E-24
 -1.4400000E-03    1.0000009E-24
 -1.4050000E-03    9.9999953E-25
 -1.3700000E-03    9.9999943E-25
 -1.3350000E-03    1.0000004E-24
 -1.3000000E-03    1.0000003E-24
 -1.2650000E-03    1.0000004E-24
 -1.2300001E-03    1.0000007E-24
 -1.1950000E-03    9.9999982E-25
 -1.1600000E-03    9.9999963E-25
 -1.1250000E-03    1.0000008E-24
 -1.0900000E-03    1.0000005E-24
 -1.0550000E-03    9.9999963E-25
 -1.0200000E-03    1.0000009E-24
 -9.8500005E-04    1.0000013E-24
 -9.5000002E-04    9.9999933E-25
 -9.1499998E-04    9.9999864E-25
 -8.8000001E-04    1.0000002E-24
 -8.4499997E-04    1.0000003E-24
 -8.1000000E-04    9.9999992E-25
 -7.7500002E-04    1.0000005E-24
 -7.3999999E-04    1.0000009E-24
 -7.0500001E-04    1.0000000E-24
 -6.6999998E-04    9.9999992E-25
 -6.3500000E-04    9.9999982E-25
 -6.0000003E-04    9.9999953E-25
 -5.6499999E-04    1.0000002E-24
 -5.3000002E-04    1.0000010E-24
 -4.9499999E-04    1.0000002E-24
 -4.6000001E-04    9.9999953E-25
 -4.2500001E-04    9.9999992E-25
 -3.9000000E-04    1.0000000E-24
 -3.5500000E-04    9.9999972E-25
 -3.1999999E-04    9.9999992E-25
 -2.8499999E-04    1.0000001E-24
 -2.5000001E-04    1.0000003E-24
 -2.1499999E-04    1.0000004E-24
 -1.8000000E-04    1.0000003E-24
 -1.4500000E-04    1.0000002E-24
 -1.1000000E-04    1.0000004E-24
 -7.5000004E-05    1.0000009E-24
 -3.9999999E-05    1.0000008E-24
 -4.9999999E-06    9.9999982E-25
  2.9999999E-05    9.9999933E-25
  6.5000000E-05    9.9999923E-25
  9.9999997E-05    9.9999923E-25
  1.3499999E-04    1.0000002E-24
  1.7000000E-04    1.0000011E-24
  2.0500000E-04    9.9999953E-25
  2.3999999E-04    9.9999874E-25
  2.7500000E-04    1.0000026E-24
  3.1000000E-04    1.0000016E-24
  3.4500001E-04    9.9999440E-25
  3.8000001E-04    1.0000005E-24
  4.1499999E-04    1.0000109E-24
  4.4999999E-04    9.9999262E-25
  4.8500000E-04    9.9998464E-25
  5.2000000E-04    1.0000268E-24
  5.5499998E-04    1.0000143E-24
  5.9000001E-04    9.9993592E-25
  6.2499999E-04    1.0000106E-24
  6.6000002E-04    1.0001226E-24
  6.9500000E-04    9.9990545E-25
  7.3000003E-04    9.9981454E-25
  7.6500000E-04    1.0002977E-24
  7.9999998E-04    1.0001933E-24
  8.3500001E-04    9.9931282E-25
  8.6999999E-04    1.0000098E-24
  9.0500002E-04    1.0012990E-24
  9.4000000E-04    9.9927200E-25
  9.7499997E-04    9.9797146E-25
  1.0100000E-03    1.0024436E-24
  1.0450000E-03    1.0024149E-24
  1.0800000E-03    9.9424863E-25
  1.1150000E-03    9.9870599E-25
  1.1500000E-03    1.0110638E-24
  1.1849999E-03    9.9637333E-25
  1.2200000E-03    9.8215401E-25
  1.2550000E-03    1.0161080E-24
  1.2900000E-03    1.0231276E-24
  1.3250000E-03    9.5884377E-25
  1.3600000E-03    9.8092122E-25
  1.3950000E-03    1.0833807E-24
  1.4299999E-03    9.8982815E-25
  1.4650000E-03    8.5744033E-25
  1.5000000E-03    1.0914760E-24
  1.5350000E-03    1.2048391E-24
  1.5700000E-03    7.3721329E-25
  1.6050000E-03    7.7158382E-25
  1.6400000E-03    1.5657796E-24
  1.6749999E-03    1.1245992E-24
  1.7100000E-03   -2.4087161E-26
  1.7450000E-03    1.2605626E-24
  1.7800000E-03    2.5993783E-24
  1.8150000E-03   -1.5186153E-25
  1.8500000E-03   -1.1200381E-24
  1.8850000E-03    3.8165016E-24
  1.9200000E-03    3.1856678E-24
  1.9550000E-03   -4.4719937E-24
  1.9900000E-03   -6.7105051E-26
  2.0250001E-03    1.0097160E-23
  2.0600001E-03   -1.3538909E-24
  2.0949999E-03   -1.2120543E-23
  2.1299999E-03    1.0531269E-23
  2.1650000E-03    1.6984792E-23
  2.2000000E-03   -2.0985781E-23
  2.2350000E-03   -1.3630592E-23
  2.2700001E-03    4.1703230E-23
  2.3050001E-03    5.0106185E-24
  2.3399999E-03   -6.4090032E-23
  2.3749999E-03    2.4175084E-23
  2.4100000E-03    9.2421852E-23
  2.4450000E-03   -7.5238171E-23
  2.4800000E-03   -1.0981282E-22
  2.5150001E-03    1.6638754E-22
  2.5500001E-03    1.0787905E-22
  2.5849999E-03   -2.9830052E-22
  2.6199999E-03   -5.2484052E-23
  2.6550000E-03    4.8190778E-22
  2.6900000E-03   -8.5762926E-23
  2.7250000E-03   -6.9993202E-22
  2.7600001E-03    3.6322453E-22
  2.7950001E-03    9.2984209E-22
  2.8299999E-03   -8.2766711E-22
  2.8649999E-03   -1.1001184E-21
  2.9000000E-03    1.5414123E-21
  2.9350000E-03    1.1082333E-21
  2.9700000E-03   -2.5325899E-21
  3.0050001E-03   -7.7351056E-22
  3.0400001E-03    3.7994328E-21
  3.0749999E-03   -1.4477656E-22
  3.1099999E-03   -5.2363211E-21
  3.1450000E-03    1.9880894E-21
  3.1800000E-03    6.6067489E-21
  3.2150000E-03   -5.1641597E-21
  3.2500001E-03   -7.4338722E-21
  3.2850001E-03    1.0157278E-20
  3.3199999E-03    6.9386301E-21
  3.3549999E-03   -1.7445562E-20
  3.3900000E-03   -3.9047396E-21
  3.4250000E-03    2.7441814E-20
  3.4600000E-03   -3.3863849E-21
  3.4950001E-03   -4.0318815E-20
  3.5300001E-03    1.7252850E-20
  3.5649999E-03    5.5836158E-20
  3.5999999E-03   -4.0575526E-20
  3.6350000E-03   -7.3030910E-20
  3.6700000E-03    7.6700742E-20
  3.7050000E-03    8.9891281E-20
  3.7400001E-03   -1.2908359E-19
  3.7750001E-03   -1.0287546E-19
  3.8099999E-03    2.0070772E-19
  3.8449999E-03    1.0638633E-19
  3.8800000E-03   -2.9304851E-19
  3.9149998E-03   -9.2051437E-20
  3.9499998E-03    4.0459182E-19
  3.9849998E-03    4.7887386E-20
  4.0199999E-03   -5.2868220E-19
  4.0549999E-03    4.2842773E-20
  4.0899999E-03    6.5079810E-19
  4.1250000E-03   -2.0303028E-19
  4.1600000E-03   -7.4521906E-19
  4.1950000E-03    4.6357352E-19
  4.2300001E-03    7.7153555E-19
  4.2650001E-03   -8.6552653E-19
  4.3000001E-03   -6.7150026E-19
  4.3350002E-03    1.4624342E-18
  4.3700002E-03    3.6734732E-19
  4.4049998E-03   -2.3221017E-18
  4.4399998E-03    2.3719040E-19
  4.4749998E-03    3.5267251E-18
  4.5099999E-03   -1.2514395E-18
  4.5449999E-03   -5.1692150E-18
  4.5799999E-03    2.7865302E-18
  4.6150000E-03    7.3429592E-18
  4.6500000E-03   -4.9370626E-18
  4.6850001E-03   -1.0120969E-17
  4.7200001E-03    7.7558059E-18
  4.7550001E-03    1.3519698E-17
  4.7900002E-03   -1.1223043E-17
  4.8250002E-03   -1.7442372E-17
  4.8600002E-03    1.5214925E-17
  4.8949998E-03    2.1597024E-17
  4.9299998E-03   -1.9478611E-17
  4.9649999E-03   -2.5386017E-17
  4.9999999E-03    2.3626611E-17
  5.0349999E-03    2.7768258E-17
  5.0700000E-03   -2.7167133E-17
  5.1050000E-03   -2.7102361E-17
  5.1400000E-03    2.9591877E-17
  5.1750001E-03    2.0990064E-17
  5.2100001E-03   -3.0545077E-17
  5.2450001E-03   -6.1546187E-18
  5.2800002E-03    3.0094912E-17
  5.3150002E-03   -2.1591563E-17
  5.3500002E-03   -2.9120305E-17
  5.3849998E-03    6.7214778E-17
  5.4199998E-03    2.9807665E-17
  5.4549999E-03   -1.3606349E-16
  5.4899999E-03   -3.6220466E-17
  5.5249999E-03    2.3308751E-16
  5.5600000E-03    5.4855078E-17
  5.5950000E-03   -3.6153328E-16
  5.6300000E-03   -9.5015246E-17
  5.6650001E-03    5.2098021E-16
  5.7000001E-03    1.6872359E-16
  5.7350001E-03   -7.0462850E-16
  5.7700002E-03   -2.8972151E-16
  5.8050002E-03    8.9588102E-16
  5.8400002E-03    4.7093417E-16
  5.8749998E-03   -1.0645477E-15
  5.9099998E-03   -7.1961373E-16
  5.9449999E-03    1.1634844E-15
  5.9799999E-03    1.0293919E-15
  6.0149999E-03   -1.1271674E-15
  6.0500000E-03   -1.3687908E-15
  6.0850000E-03    8.7455067E-16
  6.1200000E-03    1.6666225E-15
  6.1550001E-03   -3.1930733E-16
  6.1900001E-03   -1.7962378E-15
  6.2250001E-03   -6.0915576E-16
  6.2600002E-03    1.5629040E-15
  6.2950002E-03    1.9311818E-15
  6.3299998E-03   -7.0133492E-16
  6.3649998E-03   -3.5683664E-15
  6.3999998E-03   -1.1068403E-15
  6.4349999E-03    5.2849138E-15
  6.4699999E-03    4.1842826E-15
  6.5049999E-03   -6.6292195E-15
  6.5400000E-03   -8.7671679E-15
  6.5750000E-03    6.8944530E-15
  6.6100000E-03    1.4866697E-14
  6.6450001E-03   -5.1261807E-15
  6.6800001E-03   -2.2087900E-14
  6.7150001E-03    2.1242120E-16
  6.7500002E-03    2.9429231E-14
  6.7850002E-03    8.9070961E-15
  6.8199998E-03   -3.5111444E-14
  6.8549998E-03   -2.2886183E-14
  6.8899998E-03    3.6513290E-14
  6.9249999E-03    4.1474199E-14
  6.9599999E-03   -3.0315340E-14
  6.9949999E-03   -6.2925007E-14
  7.0300000E-03    1.2962635E-14
  7.0650000E-03    8.3433924E-14
  7.1000000E-03    1.8467658E-14
  7.1350001E-03   -9.6802761E-14
  7.1700001E-03   -6.4978350E-14
  7.2050001E-03    9.4602311E-14
  7.2400002E-03    1.2405981E-13
  7.2750002E-03   -6.7120856E-14
  7.3099998E-03   -1.8808167E-13
  7.3449998E-03    5.3259484E-15
  7.3799998E-03    2.4315050E-13
  7.4149999E-03    9.6105456E-14
  7.4499999E-03   -2.6906607E-13
  7.4850000E-03   -2.3492452E-13
  7.5200000E-03    2.4107243E-13
  7.5550000E-03    3.9725157E-13
  7.5900001E-03   -1.3396735E-13
  7.6250001E-03   -5.5439659E-13
  7.6600001E-03   -7.1240282E-14
  7.6950002E-03    6.6199726E-13
  7.7300002E-03    3.7857930E-13
  7.7650002E-03   -6.6304931E-13
  7.7999998E-03   -7.6759373E-13
  7.8349998E-03    4.9616550E-13
  7.8699999E-03    1.1853219E-12
  7.9049999E-03   -1.0966071E-13
  7.9399999E-03   -1.5429483E-12
  7.9750000E-03   -5.1934618E-13
  8.0100000E-03    1.7206775E-12
  8.0450000E-03    1.3635567E-12
  8.0800001E-03   -1.5839275E-12
  8.1150001E-03   -2.3268408E-12
  8.1500001E-03    1.0121825E-12
  8.1850002E-03    3.2351350E-12
  8.2200002E-03    6.1271660E-14
  8.2550002E-03   -3.8444729E-12
  8.2900003E-03   -1.6047423E-12
  8.3250003E-03    3.8723985E-12
  8.3600003E-03    3.4492745E-12
  8.3950004E-03   -3.0549216E-12
  8.4300004E-03   -5.2695352E-12
  8.4650004E-03    1.2244579E-12
  8.5000005E-03    6.5989939E-12
  8.5349996E-03    1.6042769E-12
  8.5699996E-03   -6.8900814E-12
  8.6049996E-03   -5.1614156E-12
  8.6399997E-03    5.6211598E-12
  8.6749997E-03    8.8878080E-12
  8.7099997E-03   -2.4395065E-12
  8.7449998E-03   -1.1964403E-11
  8.7799998E-03   -2.6850390E-12
  8.8149998E-03    1.3421105E-11
  8.8499999E-03    9.3332694E-12
  8.8849999E-03   -1.2324895E-11
  8.9199999E-03   -1.6579908E-11
  8.9550000E-03    8.0253131E-12
  8.9900000E-03    2.3045814E-11
  9.0250000E-03   -4.1327963E-13
  9.0600001E-03   -2.7082539E-11
  9.0950001E-03   -9.8686632E-12
  9.1300001E-03    2.7086238E-11
  9.1650002E-03    2.1335296E-11
  9.2000002E-03   -2.1903110E-11
  9.2350002E-03   -3.1750661E-11
  9.2700003E-03    1.1249814E-11
  9.3050003E-03    3.8437607E-11
  9.3400003E-03    3.9568292E-12
  9.3750004E-03   -3.8791442E-11
  9.4100004E-03   -2.1474666E-11
  9.4450004E-03    3.0925217E-11
  9.4799995E-03    3.7909845E-11
  9.5149996E-03   -1.4316550E-11
  9.5499996E-03   -4.9233031E-11
  9.5849996E-03   -9.7187440E-12
  9.6199997E-03    5.1596800E-11
  9.6549997E-03    3.7906459E-11
  9.6899997E-03   -4.2304969E-11
  9.7249998E-03   -6.5367114E-11
  9.7599998E-03    2.0702138E-11
  9.7949998E-03    8.6444719E-11
  9.8299999E-03    1.1266577E-11
  9.8649999E-03   -9.5883988E-11
  9.8999999E-03   -4.9028639E-11
  9.9350000E-03    9.0118378E-11
  9.9700000E-03    8.5991499E-11
  1.0005000E-02   -6.8352018E-11
  1.0040000E-02   -1.1472618E-10
  1.0075000E-02    3.3123122E-11
  1.0110000E-02    1.2848601E-10
  1.0145000E-02    9.8380297E-12
  1.0180000E-02   -1.2271689E-10
  1.0215000E-02   -5.2456876E-11
  1.0250000E-02    9.6236949E-11
  1.0285000E-02    8.5731047E-11
  1.0320000E-02   -5.1831459E-11
  1.0355000E-02   -1.0148637E-10
  1.0390000E-02   -3.9212982E-12
  1.0425000E-02    9.4143311E-11
  1.0460000E-02    6.1645598E-11
  1.0495000E-02   -6.2104891E-11
  1.0530000E-02   -1.1083796E-10
  1.0565000E-02    8.4496047E-12
  1.0600000E-02    1.4192386E-10
  1.0635000E-02    5.9257210E-11
  1.0670000E-02   -1.4836497E-10
  1.0705000E-02   -1.3014696E-10
  1.0740000E-02    1.2837052E-10
  1.0775000E-02    1.9218029E-10
  1.0810000E-02   -8.5642937E-11
  1.0845000E-02   -2.3480906E-10
  1.0880000E-02    2.8737844E-11
  1.0915000E-02    2.5136873E-10
  1.0950000E-02    3.0844913E-11
  1.0985000E-02   -2.4046465E-10
  1.1020000E-02   -8.1247856E-11
  1.1055000E-02    2.0603240E-10
  1.1090000E-02    1.1282519E-10
  1.1125000E-02   -1.5608975E-10
  1.1160000E-02   -1.2001791E-10
  1.1195000E-02    1.0049775E-10
  1.1230000E-02    1.0186367E-10
  1.1265000E-02   -4.8631942E-11
  1.1300000E-02   -6.1084970E-11
  1.1335000E-02    8.0721792E-12
  1.1370000E-02    2.7832116E-12
  1.1405000E-02    1.5619259E-11
  1.1440000E-02    6.6232853E-11
  1.1475000E-02   -1.9059429E-11
  1.1510000E-02   -1.3776462E-10
  1.1545000E-02    1.6131834E-12
  1.1580000E-02    2.0288726E-10
  1.1615000E-02    3.4049992E-11
  1.1650000E-02   -2.5292643E-10
  1.1685000E-02   -8.1394544E-11
  1.1720000E-02    2.8110678E-10
  1.1755000E-02    1.2979239E-10
  1.1790000E-02   -2.8555006E-10
  1.1825000E-02   -1.6665729E-10
  1.1860000E-02    2.7171551E-10
  1.1895000E-02    1.8244242E-10
  1.1930000E-02   -2.5092842E-10
  1.1965000E-02   -1.7491102E-10
  1.2000000E-02    2.3550692E-10
  1.2035000E-02    1.4975476E-10
  1.2070000E-02   -2.3376598E-10
  1.2105000E-02   -1.1831910E-10
  1.2140000E-02    2.4595218E-10
  1.2175000E-02    9.2345076E-11
  1.2210000E-02   -2.6301289E-10
  1.2245000E-02   -7.6153098E-11
  1.2280000E-02    2.7246691E-10
  1.2315000E-02    6.3248649E-11
  1.2350000E-02   -2.6818953E-10
  1.2385000E-02   -4.2309680E-11
  1.2420000E-02    2.5414890E-10
  1.2455000E-02    5.6316948E-12
  1.2490000E-02   -2.4108920E-10
  1.2525000E-02    4.6130866E-11
  1.2560000E-02    2.4120686E-10
  1.2595000E-02   -1.0117299E-10
  1.2630000E-02   -2.5874164E-10
  1.2665000E-02    1.4107346E-10
  1.2700000E-02    2.8109942E-10
  1.2735000E-02   -1.5721972E-10
  1.2770000E-02   -2.8675981E-10
  1.2805000E-02    1.6078083E-10
  1.2840000E-02    2.6460725E-10
  1.2875000E-02   -1.7226151E-10
  1.2910000E-02   -2.2069005E-10
  1.2945000E-02    2.0808082E-10
  1.2980000E-02    1.7455612E-10
  1.3015000E-02   -2.7264527E-10
  1.3050000E-02   -1.5545168E-10
  1.3085000E-02    3.4487496E-10
  1.3120000E-02    1.8116594E-10
  1.3155000E-02   -3.8100506E-10
  1.3190000E-02   -2.2978572E-10
  1.3225000E-02    3.5346692E-10
  1.3260000E-02    2.5267055E-10
  1.3295000E-02   -2.7769212E-10
  1.3330000E-02   -2.1552544E-10
  1.3365000E-02    1.9445009E-10
  1.3400000E-02    1.1233121E-10
  1.3435000E-02   -1.5246529E-10
  1.3470000E-02    2.8950242E-11
  1.3505000E-02    1.9180987E-10
  1.3540000E-02   -1.3569726E-10
  1.3575000E-02   -2.9391437E-10
  1.3610000E-02    1.3817085E-10
  1.3645000E-02    3.6950717E-10
  1.3680000E-02   -4.6813515E-11
  1.3715000E-02   -3.3887676E-10
  1.3750000E-02   -6.1686670E-11
  1.3785000E-02    1.8740748E-10
  1.3820000E-02    1.0673718E-10
  1.3855000E-02    5.0330528E-11
  1.3890000E-02   -1.8607480E-11
  1.3925000E-02   -2.8135619E-10
  1.3960000E-02   -2.1763767E-10
  1.3995000E-02    3.7142170E-10
  1.4030000E-02    4.9077731E-10
  1.4065000E-02   -2.7604441E-10
  1.4100000E-02   -6.4257138E-10
  1.4135000E-02    9.5544225E-11
  1.4170000E-02    6.1802857E-10
  1.4205000E-02    4.7386872E-11
  1.4240000E-02   -4.5137674E-10
  1.4275000E-02   -6.8125033E-11
  1.4310000E-02    2.1836352E-10
  1.4345000E-02   -8.7667200E-11
  1.4380000E-02   -6.0111451E-11
  1.4415000E-02    3.5944514E-10
  1.4450000E-02    9.3404159E-11
  1.4485000E-02   -5.4893418E-10
  1.4520000E-02   -2.2914597E-10
  1.4555000E-02    5.5944754E-10
  1.4590000E-02    3.0199535E-10
  1.4625000E-02   -4.5007370E-10
  1.4660000E-02   -2.2149450E-10
  1.4695000E-02    3.3925532E-10
  1.4730000E-02   -2.1390472E-12
  1.4765000E-02   -3.1129010E-10
  1.4800000E-02    3.4503392E-10
  1.4835000E-02    5.1283655E-10
  1.4870000E-02   -5.7833682E-10
  1.4905000E-02   -8.4236013E-10
  1.4940000E-02    5.8652366E-10
  1.4975000E-02    1.1218926E-09
  1.5010000E-02   -3.6682374E-10
  1.5045000E-02   -1.1071106E-09
  1.5080000E-02    2.1619927E-10
  1.5115000E-02    9.3297503E-10
  1.5150000E-02   -1.5176388E-10
  1.5185000E-02   -5.5405414E-10
  1.5220000E-02    4.3925696E-10
  1.5255000E-02    3.6216213E-10
  1.5290000E-02   -7.9964607E-10
  1.5325000E-02   -2.7293190E-10
  1.5360000E-02    1.3288587E-09
  1.5395000E-02    6.5881750E-10
  1.5430000E-02   -1.3762248E-09
  1.5465000E-02   -8.6103857E-10
  1.5500000E-02    1.3883924E-09
  1.5535000E-02    1.2120256E-09
  1.5570000E-02   -8.3087609E-10
  1.5605000E-02   -7.9627044E-10
  1.5640000E-02    8.4998697E-10
  1.5675001E-02    7.1489897E-10
  1.5710000E-02   -4.5128518E-10
  1.5745001E-02    1.3415487E-10
  1.5780000E-02    1.0661912E-09
  1.5814999E-02   -2.1949146E-11
  1.5850000E-02   -8.8973251E-10
  1.5884999E-02    7.4294870E-10
  1.5920000E-02    1.9307798E-09
  1.5954999E-02    2.4197899E-10
  1.5990000E-02   -1.0554929E-09
  1.6024999E-02    5.6203192E-10
  1.6060000E-02    1.8541013E-09
  1.6094999E-02    5.0693666E-10
  1.6130000E-02   -3.5183886E-10
  1.6164999E-02    1.1042165E-09
  1.6200000E-02    1.7429560E-09
  1.6235000E-02    3.6441036E-10
  1.6270000E-02    3.1768663E-10
  1.6305000E-02    2.1982496E-09
  1.6340001E-02    2.2209088E-09
  1.6375000E-02    1.7163969E-10
  1.6410001E-02    2.9284120E-10
  1.6445000E-02    2.6997833E-09
  1.6480001E-02    2.9793858E-09
  1.6515000E-02    1.0612292E-09
  1.6550001E-02    1.1894293E-09
  1.6585000E-02    3.2487226E-09
  1.6620001E-02    3.3659133E-09
  1.6655000E-02    1.9946875E-09
  1.6690001E-02    2.5639479E-09
  1.6725000E-02    4.1577315E-09
  1.6759999E-02    3.6928625E-09
  1.6795000E-02    2.5697648E-09
  1.6829999E-02    3.7896313E-09
  1.6865000E-02    5.6907390E-09
  1.6899999E-02    5.2083506E-09
  1.6935000E-02    3.9663117E-09
  1.6969999E-02    4.9989666E-09
  1.7005000E-02    6.8883934E-09
  1.7039999E-02    6.8836870E-09
  1.7075000E-02    6.1764611E-09
  1.7109999E-02    6.8754047E-09
  1.7145000E-02    7.8774791E-09
  1.7180000E-02    8.0392697E-09
  1.7215000E-02    8.6442640E-09
  1.7250000E-02    9.8375805E-09
  1.7285001E-02    9.9904973E-09
  1.7320000E-02    9.7098996E-09
  1.7355001E-02    1.0951914E-08
  1.7390000E-02    1.2775916E-08
  1.7425001E-02    1.3048385E-08
  1.7460000E-02    1.2572037E-08
  1.7495001E-02    1.3369398E-08
  1.7530000E-02    1.4984177E-08
  1.7565001E-02    1.5728439E-08
  1.7600000E-02    1.5882103E-08
  1.7635001E-02    1.6835207E-08
  1.7670000E-02    1.8194262E-08
  1.7704999E-02    1.8777461E-08
  1.7740000E-02    1.9378394E-08
  1.7774999E-02    2.0973898E-08
  1.7810000E-02    2.2197808E-08
  1.7844999E-02    2.2260263E-08
  1.7880000E-02    2.2773467E-08
  1.7914999E-02    2.4097305E-08
  1.7950000E-02    2.4952463E-08
  1.7984999E-02    2.5859695E-08
  1.8020000E-02    2.7487141E-08
  1.8054999E-02    2.8324784E-08
  1.8090000E-02    2.8281192E-08
  1.8124999E-02    2.9565701E-08
  1.8160000E-02    3.1963051E-08
  1.8195000E-02    3.2841715E-08
  1.8230001E-02    3.1977397E-08
  1.8265000E-02    3.1972359E-08
  1.8300001E-02    3.4024943E-08
  1.8335000E-02    3.5881349E-08
  1.8370001E-02    3.5622737E-08
  1.8405000E-02    3.5450366E-08
  1.8440001E-02    3.7316397E-08
  1.8475000E-02    3.8598415E-08
  1.8510001E-02    3.8073626E-08
  1.8545000E-02    3.8753658E-08
  1.8580001E-02    4.0271622E-08
  1.8615000E-02    3.9384403E-08
  1.8650001E-02    3.8132946E-08
  1.8685000E-02    3.9645606E-08
  1.8719999E-02    4.1016225E-08
  1.8755000E-02    3.9647073E-08
  1.8789999E-02    3.8427149E-08
  1.8825000E-02    3.9707682E-08
  1.8859999E-02    4.1170946E-08
  1.8895000E-02    3.9663657E-08
  1.8929999E-02    3.6718752E-08
  1.8965000E-02    3.6965218E-08
  1.8999999E-02    3.8994589E-08
  1.9035000E-02    3.6707590E-08
  1.9069999E-02    3.2240816E-08
  1.9105000E-02    3.2236784E-08
  1.9140000E-02    3.3721001E-08
  1.9175000E-02    3.1363836E-08
  1.9210000E-02    2.8513798E-08
  1.9245001E-02    2.7739388E-08
  1.9280000E-02    2.6056965E-08
  1.9315001E-02    2.3436931E-08
  1.9350000E-02    2.1675982E-08
  1.9385001E-02    1.9661220E-08
  1.9420000E-02    1.6523696E-08
  1.9455001E-02    1.2642637E-08
  1.9490000E-02    9.4947428E-09
  1.9525001E-02    8.8583025E-09
  1.9560000E-02    7.2171895E-09
  1.9595001E-02    1.2535875E-09
  1.9630000E-02   -2.7250779E-09
  1.9664999E-02   -2.0628490E-09
  1.9700000E-02   -5.5158926E-09
  1.9734999E-02   -1.3380522E-08
  1.9770000E-02   -1.6454386E-08
  1.9804999E-02   -1.6946062E-08
  1.9840000E-02   -2.1922627E-08
  1.9874999E-02   -2.8058698E-08
  1.9910000E-02   -3.1372668E-08
  1.9944999E-02   -3.3485264E-08
  1.9980000E-02   -3.5985011E-08
  2.0014999E-02   -4.0888633E-08
  2.0050000E-02   -4.7073385E-08
  2.0085000E-02   -4.9724530E-08
  2.0120000E-02   -5.1902223E-08
  2.0155000E-02   -5.8180689E-08
  2.0190001E-02   -6.2294923E-08
  2.0225000E-02   -6.3039920E-08
  2.0260001E-02   -6.8544132E-08
  2.0295000E-02   -7.4778988E-08
  2.0330001E-02   -7.4309796E-08
  2.0365000E-02   -7.5219525E-08
  2.0400001E-02   -8.1892665E-08
  2.0435000E-02   -8.5855682E-08
  2.0470001E-02   -8.6495334E-08
  2.0505000E-02   -8.8934108E-08
  2.0540001E-02   -9.1696506E-08
  2.0575000E-02   -9.4445397E-08
  2.0609999E-02   -9.7233787E-08
  2.0645000E-02   -9.6889870E-08
  2.0679999E-02   -9.7353706E-08
  2.0715000E-02   -1.0149822E-07
  2.0749999E-02   -1.0109733E-07
  2.0785000E-02   -9.7433855E-08
  2.0819999E-02   -1.0070730E-07
  2.0855000E-02   -1.0426201E-07
  2.0889999E-02   -9.9999987E-08
  2.0925000E-02   -9.7993848E-08
  2.0959999E-02   -1.0084321E-07
  2.0995000E-02   -9.8658873E-08
  2.1029999E-02   -9.4142841E-08
  2.1065000E-02   -9.3156693E-08
  2.1100000E-02   -9.1032881E-08
  2.1135001E-02   -8.7567763E-08
  2.1170000E-02   -8.5234170E-08
  2.1205001E-02   -8.0905032E-08
  2.1240000E-02   -7.7406497E-08
  2.1275001E-02   -7.6814288E-08
  2.1310000E-02   -7.1192616E-08
  2.1345001E-02   -6.3010212E-08
  2.1380000E-02   -6.1206315E-08
  2.1415001E-02   -5.7614017E-08
  2.1450000E-02   -4.7237840E-08
  2.1485001E-02   -4.1986102E-08
  2.1520000E-02   -4.0874756E-08
  2.1555001E-02   -3.3086092E-08
  2.1590000E-02   -2.4366409E-08
  2.1624999E-02   -2.0466915E-08
  2.1660000E-02   -1.4863314E-08
  2.1694999E-02   -7.5795379E-09
  2.1730000E-02   -1.6206199E-09
  2.1764999E-02    6.2774510E-09
  2.1800000E-02    1.4067508E-08
  2.1834999E-02    1.9324231E-08
  2.1870000E-02    2.6803274E-08
  2.1904999E-02    3.4523058E-08
  2.1940000E-02    3.8702488E-08
  2.1974999E-02    4.5854478E-08
  2.2010000E-02    5.5564538E-08
  2.2045000E-02    5.9307933E-08
  2.2080000E-02    6.2058646E-08
  2.2115000E-02    7.0712623E-08
  2.2150001E-02    7.7992837E-08
  2.2185000E-02    8.1304549E-08
  2.2220001E-02    8.7498250E-08
  2.2255000E-02    9.4837645E-08
  2.2290001E-02    9.8428252E-08
  2.2325000E-02    1.0167356E-07
  2.2360001E-02    1.0668917E-07
  2.2395000E-02    1.1067744E-07
  2.2430001E-02    1.1344213E-07
  2.2465000E-02    1.1568316E-07
  2.2500001E-02    1.1698153E-07
  2.2535000E-02    1.1926201E-07
  2.2569999E-02    1.2316441E-07
  2.2605000E-02    1.2542340E-07
  2.2639999E-02    1.2564645E-07
  2.2675000E-02    1.2618682E-07
  2.2709999E-02    1.2598517E-07
  2.2745000E-02    1.2497722E-07
  2.2779999E-02    1.2577082E-07
  2.2815000E-02    1.2517837E-07
  2.2849999E-02    1.2034076E-07
  2.2885000E-02    1.1798234E-07
  2.2919999E-02    1.1920839E-07
  2.2955000E-02    1.1511018E-07
  2.2990000E-02    1.0835135E-07
  2.3025000E-02    1.0778655E-07
  2.3060000E-02    1.0704506E-07
  2.3095001E-02    9.9754800E-08
  2.3130000E-02    9.3403855E-08
  2.3165001E-02    9.0498695E-08
  2.3200000E-02    8.5934772E-08
  2.3235001E-02    8.0364693E-08
  2.3270000E-02    7.4425465E-08
  2.3305001E-02    6.6558016E-08
  2.3340000E-02    5.9634544E-08
  2.3375001E-02    5.4258297E-08
  2.3410000E-02    4.8384379E-08
  2.3445001E-02    4.3656829E-08
  2.3480000E-02    3.7444600E-08
  2.3514999E-02    2.6333574E-08
  2.3550000E-02    1.8496731E-08
  2.3584999E-02    1.7309208E-08
  2.3620000E-02    1.1186561E-08
  2.3654999E-02   -1.7177724E-09
  2.3690000E-02   -9.7038368E-09
  2.3724999E-02   -1.2429072E-08
  2.3760000E-02   -1.8873999E-08
  2.3794999E-02   -2.8064269E-08
  2.3830000E-02   -3.3926629E-08
  2.3864999E-02   -3.8343025E-08
  2.3900000E-02   -4.5784038E-08
  2.3934999E-02   -5.3923770E-08
  2.3970000E-02   -5.9037127E-08
  2.4005000E-02   -6.3266633E-08
  2.4040001E-02   -6.9176544E-08
  2.4075000E-02   -7.5226758E-08
  2.4110001E-02   -8.0013692E-08
  2.4145000E-02   -8.4085777E-08
  2.4180001E-02   -8.8945029E-08
  2.4215000E-02   -9.4392377E-08
  2.4250001E-02   -9.6645898E-08
  2.4285000E-02   -9.7705168E-08
  2.4320001E-02   -1.0498164E-07
  2.4355000E-02   -1.1235144E-07
  2.4390001E-02   -1.1023726E-07
  2.4425000E-02   -1.0899132E-07
  2.4460001E-02   -1.1568640E-07
  2.4495000E-02   -1.1829029E-07
  2.4529999E-02   -1.1633178E-07
  2.4565000E-02   -1.1884467E-07
  2.4599999E-02   -1.1982824E-07
  2.4635000E-02   -1.1774603E-07
  2.4669999E-02   -1.2092187E-07
  2.4705000E-02   -1.2354596E-07
  2.4739999E-02   -1.2155225E-07
  2.4775000E-02   -1.2310997E-07
  2.4809999E-02   -1.2308709E-07
  2.4845000E-02   -1.1661061E-07
  2.4879999E-02   -1.1617997E-07
  2.4915000E-02   -1.1942056E-07
  2.4950000E-02   -1.1373085E-07
  2.4985000E-02   -1.0953824E-07
  2.5020000E-02   -1.1338452E-07
  2.5055001E-02   -1.1116775E-07
  2.5090000E-02   -1.0491492E-07
  2.5125001E-02   -1.0610803E-07
  2.5160000E-02   -1.0571137E-07
  2.5195001E-02   -9.8472661E-08
  2.5230000E-02   -9.5451881E-08
  2.5265001E-02   -9.5171792E-08
  2.5300000E-02   -8.9533202E-08
  2.5335001E-02   -8.5729035E-08
  2.5370000E-02   -8.7519823E-08
  2.5405001E-02   -8.4415582E-08
  2.5440000E-02   -7.5439566E-08
  2.5474999E-02   -7.0881519E-08
  2.5510000E-02   -7.0555359E-08
  2.5544999E-02   -6.7813545E-08
  2.5580000E-02   -6.4234023E-08
  2.5614999E-02   -6.1551589E-08
  2.5650000E-02   -5.6409839E-08
  2.5684999E-02   -5.1319756E-08
  2.5720000E-02   -5.0660436E-08
  2.5754999E-02   -4.8834337E-08
  2.5790000E-02   -4.1129699E-08
  2.5824999E-02   -3.4184744E-08
  2.5860000E-02   -3.2141084E-08
  2.5895000E-02   -2.9489682E-08
  2.5930000E-02   -2.4718711E-08
  2.5965000E-02   -2.2272941E-08
  2.6000001E-02   -1.9733617E-08
  2.6035000E-02   -1.2861608E-08
  2.6070001E-02   -7.3297191E-09
  2.6105000E-02   -5.4836691E-09
  2.6140001E-02    1.4040755E-10
  2.6175000E-02    6.2035901E-09
  2.6210001E-02    5.5378275E-09
  2.6245000E-02    9.8129043E-09
  2.6280001E-02    2.2786587E-08
  2.6315000E-02    2.5838897E-08
  2.6350001E-02    2.1411054E-08
  2.6385000E-02    2.9017121E-08
  2.6419999E-02    3.9793751E-08
  2.6455000E-02    4.1118959E-08
  2.6489999E-02    4.4744894E-08
  2.6525000E-02    5.1581161E-08
  2.6559999E-02    5.2520704E-08
  2.6595000E-02    5.7157028E-08
  2.6629999E-02    6.8578224E-08
  2.6665000E-02    7.3822470E-08
  2.6699999E-02    7.5664033E-08
  2.6735000E-02    8.3181824E-08
  2.6769999E-02    9.1043916E-08
  2.6805000E-02    9.6521880E-08
  2.6839999E-02    1.0422908E-07
  2.6875000E-02    1.1351781E-07
  2.6910000E-02    1.2130953E-07
  2.6945001E-02    1.2812681E-07
  2.6980000E-02    1.3745100E-07