 -4.8000002E-03    1.0000000E-24
 -4.7650002E-03    1.0000000E-24
 -4.7300002E-03    1.0000002E-24
 -4.6950001E-03    1.0000002E-24
 -4.6600001E-03    1.0000002E-24
 -4.6250001E-03    1.0000000E-24
 -4.5900000E-03    1.0000000E-24
 -4.5550000E-03    1.0000003E-24
 -4.5200000E-03    1.0000001E-24
 -4.4849999E-03    9.9999992E-25
 -4.4499999E-03    1.0000002E-24
 -4.4149999E-03    1.0000003E-24
 -4.3799998E-03    1.0000001E-24
 -4.3449998E-03    1.0000001E-24
 -4.3100002E-03    1.0000000E-24
 -4.2750002E-03    1.0000001E-24
 -4.2400002E-03    1.0000001E-24
 -4.2050001E-03    1.0000000E-24
 -4.1700001E-03    9.9999972E-25
 -4.1350001E-03    1.0000000E-24
 -4.1000000E-03    1.0000006E-24
 -4.0650000E-03    1.0000003E-24
 -4.0300000E-03    9.9999953E-25
 -3.9949999E-03    9.9999972E-25
 -3.9599999E-03    1.0000003E-24
 -3.9249999E-03    1.0000004E-24
 -3.8900001E-03    1.0000001E-24
 -3.8550000E-03    1.0000000E-24
 -3.8200000E-03    1.0000000E-24
 -3.7849999E-03    1.0000003E-24
 -3.7499999E-03    1.0000002E-24
 -3.7150001E-03    1.0000000E-24
 -3.6800001E-03    1.0000004E-24
 -3.6450000E-03    1.0000005E-24
 -3.6100000E-03    9.9999982E-25
 -3.5750000E-03    9.9999963E-25
 -3.5399999E-03    1.0000004E-24
 -3.5049999E-03    1.0000003E-24
 -3.4700001E-03    9.9999972E-25
 -3.4350001E-03    1.0000000E-24
 -3.4000000E-03    1.0000005E-24
 -3.3650000E-03    1.0000001E-24
 -3.3300000E-03    9.9999992E-25
 -3.2949999E-03    1.0000001E-24
 -3.2599999E-03    1.0000000E-24
 -3.2250001E-03    9.9999972E-25
 -3.1900001E-03    9.9999992E-25
 -3.1550000E-03    1.0000004E-24
 -3.1200000E-03    1.0000004E-24
 -3.0850000E-03    1.0000002E-24
 -3.0499999E-03    1.0000003E-24
 -3.0149999E-03    1.0000000E-24
 -2.9800001E-03    9.9999943E-25
 -2.9450001E-03    9.9999982E-25
 -2.9100000E-03    1.0000006E-24
 -2.8750000E-03    1.0000006E-24
 -2.8400000E-03    1.0000000E-24
 -2.8049999E-03    1.0000000E-24
 -2.7699999E-03    1.0000004E-24
 -2.7350001E-03    1.0000003E-24
 -2.7000001E-03    9.9999972E-25
 -2.6650000E-03    9.9999963E-25
 -2.6300000E-03    1.0000002E-24
 -2.5950000E-03    1.0000007E-24
 -2.5599999E-03    1.0000005E-24
 -2.5249999E-03    9.9999982E-25
 -2.4900001E-03    1.0000001E-24
 -2.4550001E-03    1.0000004E-24
 -2.4200000E-03    1.0000003E-24
 -2.3850000E-03    1.0000004E-24
 -2.3500000E-03    9.9999992E-25
 -2.3149999E-03    9.9999943E-25
 -2.2799999E-03    1.0000000E-24
 -2.2450001E-03    1.0000004E-24
 -2.2100001E-03    1.0000002E-24
 -2.1750000E-03    1.0000004E-24
 -2.1400000E-03    1.0000003E-24
 -2.1050000E-03    9.9999972E-25
 -2.0699999E-03    9.9999963E-25
 -2.0349999E-03    1.0000005E-24
 -2.0000001E-03    1.0000009E-24
 -1.9650001E-03    1.0000001E-24
 -1.9300000E-03    9.9999982E-25
 -1.8950000E-03    1.0000004E-24
 -1.8600000E-03    1.0000002E-24
 -1.8250000E-03    9.9999933E-25
 -1.7900000E-03    9.9999992E-25
 -1.7550000E-03    1.0000011E-24
 -1.7199999E-03    1.0000009E-24
 -1.6850000E-03    9.9999933E-25
 -1.6500000E-03    9.9999913E-25
 -1.6150000E-03    1.0000001E-24
 -1.5800000E-03    1.0000003E-24
 -1.5450000E-03    9.9999992E-25
 -1.5100000E-03    1.0000000E-24
 -1.4750001E-03    1.0000004E-24
 -1.4400000E-03    1.0000001E-24
 -1.4050000E-03    9.9999992E-25
 -1.3700000E-03    1.0000005E-24
 -1.3350000E-03    1.0000009E-24
 -1.3000000E-03    1.0000001E-24
 -1.2650000E-03    9.9999913E-25
 -1.2300001E-03    9.9999923E-25
 -1.1950000E-03    1.0000002E-24
 -1.1600000E-03    1.0000010E-24
 -1.1250000E-03    1.0000005E-24
 -1.0900000E-03    1.0000000E-24
 -1.0550000E-03    1.0000002E-24
 -1.0200000E-03    9.9999972E-25
 -9.8500005E-04    9.9999933E-25
 -9.5000002E-04    1.0000006E-24
 -9.1499998E-04    1.0000014E-24
 -8.8000001E-04    1.0000000E-24
 -8.4499997E-04    9.9999992E-25
 -8.1000000E-04    1.0000008E-24
 -7.7500002E-04    9.9999982E-25
 -7.3999999E-04    9.9999854E-25
 -7.0500001E-04    9.9999923E-25
 -6.6999998E-04    1.0000005E-24
 -6.3500000E-04    1.0000010E-24
 -6.0000003E-04    1.0000011E-24
 -5.6499999E-04    1.0000000E-24
 -5.3000002E-04    9.9999874E-25
 -4.9499999E-04    9.9999953E-25
 -4.6000001E-04    1.0000010E-24
 -4.2500001E-04    1.0000009E-24
 -3.9000000E-04    1.0000007E-24
 -3.5500000E-04    1.0000000E-24
 -3.1999999E-04    9.9999884E-25
 -2.8499999E-04    9.9999943E-25
 -2.5000001E-04    1.0000009E-24
 -2.1499999E-04    1.0000004E-24
 -1.8000000E-04    9.9999963E-25
 -1.4500000E-04    1.0000004E-24
 -1.1000000E-04    1.0000006E-24
 -7.5000004E-05    1.0000001E-24
 -3.9999999E-05    1.0000007E-24
 -4.9999999E-06    1.0000007E-24
  2.9999999E-05    9.9999874E-25
  6.5000000E-05    9.9999824E-25
  9.9999997E-05    1.0000006E-24
  1.3499999E-04    1.0000018E-24
  1.7000000E-04    1.0000010E-24
  2.0500000E-04    1.0000006E-24
  2.3999999E-04    9.9999943E-25
  2.7500000E-04    9.9999834E-25
  3.1000000E-04    9.9999972E-25
  3.4500001E-04    1.0000009E-24
  3.8000001E-04    9.9999953E-25
  4.1499999E-04    1.0000001E-24
  4.4999999E-04    1.0000017E-24
  4.8500000E-04    1.0000006E-24
  5.2000000E-04    9.9999933E-25
  5.5499998E-04    9.9999982E-25
  5.9000001E-04    9.9999933E-25
  6.2499999E-04    9.9999864E-25
  6.6000002E-04    1.0000008E-24
  6.9500000E-04    1.0000018E-24
  7.3000003E-04    9.9999933E-25
  7.6500000E-04    9.9999884E-25
  7.9999998E-04    1.0000006E-24
  8.3500001E-04    1.0000011E-24
  8.6999999E-04    1.0000008E-24
  9.0500002E-04    1.0000005E-24
  9.4000000E-04    9.9999992E-25
  9.7499997E-04    9.9999923E-25
  1.0100000E-03    9.9999923E-25
  1.0450000E-03    1.0000000E-24
  1.0800000E-03    1.0000013E-24
  1.1150000E-03    1.0000016E-24
  1.1500000E-03    1.0000002E-24
  1.1849999E-03    9.9999903E-25
  1.2200000E-03    9.9999972E-25
  1.2550000E-03    1.0000009E-24
  1.2900000E-03    1.0000004E-24
  1.3250000E-03    9.9999913E-25
  1.3600000E-03    9.9999943E-25
  1.3950000E-03    1.0000009E-24
  1.4299999E-03    1.0000007E-24
  1.4650000E-03    9.9999992E-25
  1.5000000E-03    1.0000003E-24
  1.5350000E-03    1.0000006E-24
  1.5700000E-03    9.9999943E-25
  1.6050000E-03    9.9999864E-25
  1.6400000E-03    9.9999923E-25
  1.6749999E-03    1.0000003E-24
  1.7100000E-03    1.0000019E-24
  1.7450000E-03    1.0000014E-24
  1.7800000E-03    9.9999903E-25
  1.8150000E-03    9.9999884E-25
  1.8500000E-03    1.0000007E-24
  1.8850000E-03    1.0000008E-24
  1.9200000E-03    9.9999992E-25
  1.9550000E-03    1.0000002E-24
  1.9900000E-03    1.0000027E-24
  2.0250001E-03    1.0000030E-24
  2.0600001E-03    9.9999450E-25
  2.0949999E-03    9.9998927E-25
  2.1299999E-03    9.9999775E-25
  2.1650000E-03    1.0000097E-24
  2.2000000E-03    9.9999953E-25
  2.2350000E-03    9.9998710E-25
  2.2700001E-03    9.9999785E-25
  2.3050001E-03    1.0000225E-24
  2.3399999E-03    1.0000241E-24
  2.3749999E-03    9.9995643E-25
  2.4100000E-03    9.9999331E-25
  2.4450000E-03    1.0000900E-24
  2.4800000E-03    1.0000791E-24
  2.5150001E-03    9.9990250E-25
  2.5500001E-03    9.9988524E-25
  2.5849999E-03    1.0001753E-24
  2.6199999E-03    1.0003451E-24
  2.6550000E-03    1.0000637E-24
  2.6900000E-03    9.9970134E-25
  2.7250000E-03    9.9989490E-25
  2.7600001E-03    1.0009713E-24
  2.7950001E-03    1.0003830E-24
  2.8299999E-03    9.9880322E-25
  2.8649999E-03    9.9907607E-25
  2.9000000E-03    1.0015555E-24
  2.9350000E-03    1.0025745E-24
  2.9700000E-03    9.9790342E-25
  3.0050001E-03    9.9530630E-25
  3.0400001E-03    1.0037040E-24
  3.0749999E-03    1.0105726E-24
  3.1099999E-03    9.9840386E-25
  3.1450000E-03    9.8590327E-25
  3.1800000E-03    9.9854556E-25
  3.2150000E-03    1.0194902E-24
  3.2500001E-03    1.0111667E-24
  3.2850001E-03    9.7067816E-25
  3.3199999E-03    9.6184795E-25
  3.3549999E-03    1.0322758E-24
  3.3900000E-03    1.0588889E-24
  3.4250000E-03    9.6185919E-25
  3.4600000E-03    8.8566903E-25
  3.4950001E-03    1.0283806E-24
  3.5300001E-03    1.1940224E-24
  3.5649999E-03    1.0179380E-24
  3.5999999E-03    6.8921914E-25
  3.6350000E-03    8.4590186E-25
  3.6700000E-03    1.4314261E-24
  3.7050000E-03    1.3985782E-24
  3.7400001E-03    4.0159301E-25
  3.7750001E-03    1.1376005E-25
  3.8099999E-03    1.4959396E-24
  3.8449999E-03    2.5282418E-24
  3.8800000E-03    6.6790417E-25
  3.9149998E-03   -1.4965952E-24
  3.9499998E-03    6.4309706E-25
  3.9849998E-03    4.7221111E-24
  4.0199999E-03    2.6956452E-24
  4.0549999E-03   -4.2433976E-24
  4.0899999E-03   -3.3399116E-24
  4.1250000E-03    7.4509293E-24
  4.1600000E-03    9.8359998E-24
  4.1950000E-03   -5.6725485E-24
  4.2300001E-03   -1.5317661E-23
  4.2650001E-03    4.2644827E-24
  4.3000001E-03    2.6302442E-23
  4.3350002E-03    5.1609521E-24
  4.3700002E-03   -3.5701882E-23
  4.4049998E-03   -1.8372214E-23
  4.4399998E-03    4.9467495E-23
  4.4749998E-03    4.8191008E-23
  4.5099999E-03   -5.4154847E-23
  4.5449999E-03   -9.1691386E-23
  4.5799999E-03    4.8003821E-23
  4.6150000E-03    1.5566402E-22
  4.6500000E-03   -9.8761749E-24
  4.6850001E-03   -2.2933812E-22
  4.7200001E-03   -7.2692295E-23
  4.7550001E-03    3.0994567E-22
  4.7900002E-03    2.2781470E-22
  4.8250002E-03   -3.6631323E-22
  4.8600002E-03   -4.7312414E-22
  4.8949998E-03    3.5302152E-22
  4.9299998E-03    8.1676553E-22
  4.9649999E-03   -2.0474587E-22
  4.9999999E-03   -1.2582429E-21
  5.0349999E-03   -1.9253608E-22
  5.0700000E-03    1.7447755E-21
  5.1050000E-03    9.6651551E-22
  5.1400000E-03   -2.1460389E-21
  5.1750001E-03   -2.2570625E-21
  5.2100001E-03    2.1798067E-21
  5.2450001E-03    4.0928242E-21
  5.2800002E-03   -1.4888752E-21
  5.3150002E-03   -6.4049168E-21
  5.3500002E-03   -3.9187772E-22
  5.3849998E-03    8.9654423E-21
  5.4199998E-03    4.1578508E-21
  5.4549999E-03   -1.1039869E-20
  5.4899999E-03   -1.0306313E-20
  5.5249999E-03    1.1510632E-20
  5.5600000E-03    1.9196629E-20
  5.5950000E-03   -8.5712867E-21
  5.6300000E-03   -3.0541324E-20
  5.6650001E-03   -1.0664258E-22
  5.7000001E-03    4.2938225E-20
  5.7350001E-03    1.7434747E-20
  5.7700002E-03   -5.3206687E-20
  5.8050002E-03   -4.5655908E-20
  5.8400002E-03    5.6352468E-20
  5.8749998E-03    8.6479167E-20
  5.9099998E-03   -4.4082594E-20
  5.9449999E-03   -1.3840423E-19
  5.9799999E-03    5.8668560E-21
  6.0149999E-03    1.9498146E-19
  6.0500000E-03    6.9752548E-20
  6.0850000E-03   -2.4225941E-19
  6.1200000E-03   -1.9327026E-19
  6.1550001E-03    2.5819629E-19
  6.1900001E-03    3.7000717E-19
  6.2250001E-03   -2.0864154E-19
  6.2600002E-03   -5.9271549E-19
  6.2950002E-03    5.2266981E-20
  6.3299998E-03    8.3709623E-19
  6.3649998E-03    2.6169355E-19
  6.3999998E-03   -1.0424960E-18
  6.4349999E-03   -7.6975784E-19
  6.4699999E-03    1.1205865E-18
  6.5049999E-03    1.4971759E-18
  6.5400000E-03   -9.3024980E-19
  6.5750000E-03   -2.4040090E-18
  6.6100000E-03    3.1242475E-19
  6.6450001E-03    3.3822268E-18
  6.6800001E-03    9.0915276E-19
  6.7150001E-03   -4.2177642E-18
  6.7500002E-03   -2.8890187E-18
  6.7850002E-03    4.5474490E-18
  6.8199998E-03    5.6809429E-18
  6.8549998E-03   -3.8687576E-18
  6.8899998E-03   -9.1471543E-18
  6.9249999E-03    1.5714276E-18
  6.9599999E-03    1.2848107E-17
  6.9949999E-03    2.9550616E-18
  7.0300000E-03   -1.5969582E-17
  7.0650000E-03   -1.0215834E-17
  7.1000000E-03    1.7185594E-17
  7.1350001E-03    2.0286876E-17
  7.1700001E-03   -1.4789060E-17
  7.2050001E-03   -3.2618034E-17
  7.2400002E-03    6.7072957E-18
  7.2750002E-03    4.5563140E-17
  7.3099998E-03    9.0935637E-18
  7.3449998E-03   -5.6179573E-17
  7.3799998E-03   -3.4007992E-17
  7.4149999E-03    5.9985960E-17
  7.4499999E-03    6.7871261E-17
  7.4850000E-03   -5.1408448E-17
  7.5200000E-03   -1.0842944E-16
  7.5550000E-03    2.4040522E-17
  7.5900001E-03    1.4979633E-16
  7.6250001E-03    2.7771689E-17
  7.6600001E-03   -1.8226916E-16
  7.6950002E-03   -1.0743356E-16
  7.7300002E-03    1.9187672E-16
  7.7650002E-03    2.1332522E-16
  7.7999998E-03   -1.6156137E-16
  7.8349998E-03   -3.3618296E-16
  7.8699999E-03    7.3818332E-17
  7.9049999E-03    4.5676114E-16
  7.9399999E-03    8.5603055E-17
  7.9750000E-03   -5.4540721E-16
  8.0100000E-03   -3.2281649E-16
  8.0450000E-03    5.6156183E-16
  8.0800001E-03    6.2763945E-16
  8.1150001E-03   -4.5911436E-16
  8.1500001E-03   -9.6808063E-16
  8.1850002E-03    1.9454080E-16
  8.2200002E-03    1.2865565E-15
  8.2550002E-03    2.6294539E-16
  8.2900003E-03   -1.4987445E-15
  8.3250003E-03   -9.1519962E-16
  8.3600003E-03    1.5002536E-15
  8.3950004E-03    1.7224247E-15
  8.4300004E-03   -1.1779184E-15
  8.4650004E-03   -2.5876190E-15
  8.5000005E-03    4.3350233E-16
  8.5349996E-03    3.3495640E-15
  8.5699996E-03    7.8407225E-16
  8.6049996E-03   -3.7918222E-15
  8.6399997E-03   -2.4479108E-15
  8.6749997E-03    3.6613889E-15
  8.7099997E-03    4.4172933E-15
  8.7449998E-03   -2.7148852E-15
  8.7799998E-03   -6.4262988E-15
  8.8149998E-03    7.6114592E-16
  8.8499999E-03    8.0651690E-15
  8.8849999E-03    2.2530945E-15
  8.9199999E-03   -8.8257225E-15
  8.9550000E-03   -6.1776561E-15
  8.9900000E-03    8.1609498E-15
  9.0250000E-03    1.0615170E-14
  9.0600001E-03   -5.5765812E-15
  9.0950001E-03   -1.4870121E-14
  9.1300001E-03    7.7916078E-16
  9.1650002E-03    1.7999455E-14
  9.2000002E-03    6.1897487E-15
  9.2350002E-03   -1.8897334E-14
  9.2700003E-03   -1.4812523E-14
  9.3050003E-03    1.6471271E-14
  9.3400003E-03    2.4020570E-14
  9.3750004E-03   -9.8670546E-15
  9.4100004E-03   -3.2186659E-14
  9.4450004E-03   -1.2303978E-15
  9.4799995E-03    3.7261579E-14
  9.5149996E-03    1.6347517E-14
  9.5499996E-03   -3.7012473E-14
  9.5849996E-03   -3.3957178E-14
  9.6199997E-03    2.9477668E-14
  9.6549997E-03    5.1427954E-14
  9.6899997E-03   -1.3471691E-14
  9.7249998E-03   -6.5183895E-14
  9.7599998E-03   -1.0908986E-14
  9.7949998E-03    7.1043269E-14
  9.8299999E-03    4.1732439E-14
  9.8649999E-03   -6.4933105E-14
  9.8999999E-03   -7.4990151E-14
  9.9350000E-03    4.3802208E-14
  9.9700000E-03    1.0463592E-13
  1.0005000E-02   -6.7112754E-15
  1.0040000E-02   -1.2319411E-13
  1.0075000E-02   -4.4198321E-14
  1.0110000E-02    1.2281899E-13
  1.0145000E-02    1.0294919E-13
  1.0180000E-02   -9.7022034E-14
  1.0215000E-02   -1.5978146E-13
  1.0250000E-02    4.2419515E-14
  1.0285000E-02    2.0166671E-13
  1.0320000E-02    3.9069354E-14
  1.0355000E-02   -2.1433151E-13
  1.0390000E-02   -1.3894485E-13
  1.0425000E-02    1.8479962E-13
  1.0460000E-02    2.4138994E-13
  1.0495000E-02   -1.0510015E-13
  1.0530000E-02   -3.2451543E-13
  1.0565000E-02   -2.4399562E-14
  1.0600000E-02    3.6284417E-13
  1.0635000E-02    1.9170586E-13
  1.0670000E-02   -3.3227189E-13
  1.0705000E-02   -3.7222962E-13
  1.0740000E-02    2.1549949E-13
  1.0775000E-02    5.2930755E-13
  1.0810000E-02   -9.1689199E-15
  1.0845000E-02   -6.1914384E-13
  1.0880000E-02   -2.7130072E-13
  1.0915000E-02    5.9748436E-13
  1.0950000E-02    5.8777603E-13
  1.0985000E-02   -4.3051565E-13
  1.1020000E-02   -8.8137982E-13
  1.1055000E-02    1.0502758E-13
  1.1090000E-02    1.0777609E-12
  1.1125000E-02    3.6086794E-13
  1.1160000E-02   -1.0993089E-12
  1.1195000E-02   -9.1201233E-13
  1.1230000E-02    8.8076296E-13
  1.1265000E-02    1.4555827E-12
  1.1300000E-02   -3.8847723E-13
  1.1335000E-02   -1.8704450E-12
  1.1370000E-02   -3.6343546E-13
  1.1405000E-02    2.0231304E-12
  1.1440000E-02    1.2996285E-12
  1.1475000E-02   -1.7941127E-12
  1.1510000E-02   -2.2816378E-12
  1.1545000E-02    1.1073094E-12
  1.1580000E-02    3.1182934E-12
  1.1615000E-02    4.0936052E-14
  1.1650000E-02   -3.5902475E-12
  1.1685000E-02   -1.5598036E-12
  1.1720000E-02    3.4872949E-12
  1.1755000E-02    3.2551895E-12
  1.1790000E-02   -2.6548334E-12
  1.1825000E-02   -4.8405442E-12
  1.1860000E-02    1.0412974E-12
  1.1895000E-02    5.9699841E-12
  1.1930000E-02    1.2632292E-12
  1.1965000E-02   -6.2921101E-12
  1.2000000E-02   -4.0069901E-12
  1.2035000E-02    5.5192352E-12
  1.2070000E-02    6.7840460E-12
  1.2105000E-02   -3.5022731E-12
  1.2140000E-02   -9.0764462E-12
  1.2175000E-02    2.9497298E-13
  1.2210000E-02    1.0328499E-11
  1.2245000E-02    3.8063086E-12
  1.2280000E-02   -1.0047126E-11
  1.2315000E-02   -8.2620031E-12
  1.2350000E-02    7.9143697E-12
  1.2385000E-02    1.2338516E-11
  1.2420000E-02   -3.8902744E-12
  1.2455000E-02   -1.5207760E-11
  1.2490000E-02   -1.7162739E-12
  1.2525000E-02    1.6089494E-11
  1.2560000E-02    8.2332587E-12
  1.2595000E-02   -1.4414404E-11
  1.2630000E-02   -1.4682384E-11
  1.2665000E-02    9.9771658E-12
  1.2700000E-02    1.9908427E-11
  1.2735000E-02   -3.0477274E-12
  1.2770000E-02   -2.2771252E-11
  1.2805000E-02   -5.5930347E-12
  1.2840000E-02    2.2371974E-11
  1.2875000E-02    1.4716802E-11
  1.2910000E-02   -1.8269962E-11
  1.2945000E-02   -2.2815713E-11
  1.2980000E-02    1.0639925E-11
  1.3015000E-02    2.8352676E-11
  1.3050000E-02   -3.2822830E-13
  1.3085000E-02   -3.0055420E-11
  1.3120000E-02   -1.1218981E-11
  1.3155000E-02    2.7198414E-11
  1.3190000E-02    2.2159429E-11
  1.3225000E-02   -1.9813073E-11
  1.3260000E-02   -3.0569935E-11
  1.3295000E-02    8.7640234E-12
  1.3330000E-02    3.4811855E-11
  1.3365000E-02    4.3359535E-12
  1.3400000E-02   -3.3875704E-11
  1.3435000E-02   -1.7367576E-11
  1.3470000E-02    2.7637776E-11
  1.3505000E-02    2.8077480E-11
  1.3540000E-02   -1.6962308E-11
  1.3575000E-02   -3.4520154E-11
  1.3610000E-02    3.6009793E-12
  1.3645000E-02    3.5471348E-11
  1.3680000E-02    1.0101458E-11
  1.3715000E-02   -3.0720721E-11
  1.3750000E-02   -2.1642370E-11
  1.3785000E-02    2.1183350E-11
  1.3820000E-02    2.8866003E-11
  1.3855000E-02   -8.7959744E-12
  1.3890000E-02   -3.0465973E-11
  1.3925000E-02   -3.8474566E-12
  1.3960000E-02    2.6332355E-11
  1.3995000E-02    1.4048990E-11
  1.4030000E-02   -1.7635790E-11
  1.4065000E-02   -1.9611049E-11
  1.4100000E-02    6.6307294E-12
  1.4135000E-02    1.9361552E-11
  1.4170000E-02    3.7711158E-12
  1.4205000E-02   -1.3541004E-11
  1.4240000E-02   -1.0669580E-11
  1.4275000E-02    3.8769925E-12
  1.4310000E-02    1.1933921E-11
  1.4345000E-02    6.7291515E-12
  1.4380000E-02   -6.8545443E-12
  1.4415000E-02   -1.4904160E-11
  1.4450000E-02   -3.6050297E-12
  1.4485000E-02    1.7557896E-11
  1.4520000E-02    1.6799286E-11
  1.4555000E-02   -1.2793673E-11
  1.4590000E-02   -2.8930429E-11
  1.4625000E-02    5.4065785E-13
  1.4660000E-02    3.5840945E-11
  1.4695000E-02    1.7025071E-11
  1.4730000E-02   -3.4296184E-11
  1.4765000E-02   -3.5968822E-11
  1.4800000E-02    2.2780154E-11
  1.4835000E-02    5.1170596E-11
  1.4870000E-02   -2.4398287E-12
  1.4905000E-02   -5.7837232E-11
  1.4940000E-02   -2.3120188E-11
  1.4975000E-02    5.2527142E-11
  1.5010000E-02    4.7986497E-11
  1.5045000E-02   -3.4934482E-11
  1.5080000E-02   -6.5935292E-11
  1.5115000E-02    7.7544941E-12
  1.5150000E-02    7.1416817E-11
  1.5185000E-02    2.2735782E-11
  1.5220000E-02   -6.2387387E-11
  1.5255000E-02   -4.9249851E-11
  1.5290000E-02    4.0104153E-11
  1.5325000E-02    6.4044568E-11
  1.5360000E-02   -1.1083728E-11
  1.5395000E-02   -6.3563585E-11
  1.5430000E-02   -1.6821770E-11
  1.5465000E-02    4.7336742E-11
  1.5500000E-02    3.3645892E-11
  1.5535000E-02   -2.2166347E-11
  1.5570000E-02   -3.4322850E-11
  1.5605000E-02   -3.3207248E-12
  1.5640000E-02    1.6681755E-11
  1.5675001E-02    1.6238799E-11
  1.5710000E-02    1.1095212E-11
  1.5745001E-02   -1.0694668E-11
  1.5780000E-02   -3.9936998E-11
  1.5814999E-02   -1.7915907E-11
  1.5850000E-02    5.3162055E-11
  1.5884999E-02    6.0303665E-11
  1.5920000E-02   -4.2649818E-11
  1.5954999E-02   -1.0656227E-10
  1.5990000E-02   -6.2192834E-13
  1.6024999E-02    1.3356631E-10
  1.6060000E-02    6.5349733E-11
  1.6094999E-02   -1.3064511E-10
  1.6130000E-02   -1.4145506E-10
  1.6164999E-02    8.3003278E-11
  1.6200000E-02    1.9993378E-10
  1.6235000E-02   -1.5481665E-12
  1.6270000E-02   -2.2749770E-10
  1.6305000E-02   -1.0837812E-10
  1.6340001E-02    1.9702634E-10
  1.6375000E-02    2.0875948E-10
  1.6410001E-02   -1.1868241E-10
  1.6445000E-02   -2.8355429E-10
  1.6480001E-02   -7.5821294E-12
  1.6515000E-02    2.9515773E-10
  1.6550001E-02    1.3919783E-10
  1.6585000E-02   -2.5174890E-10
  1.6620001E-02   -2.6367034E-10
  1.6655000E-02    1.3803494E-10
  1.6690001E-02    3.2690739E-10
  1.6725000E-02   -1.9202957E-12
  1.6759999E-02   -3.3504124E-10
  1.6795000E-02   -1.4835208E-10
  1.6829999E-02    2.5928221E-10
  1.6865000E-02    2.4670163E-10
  1.6899999E-02   -1.5201769E-10
  1.6935000E-02   -3.0496677E-10
  1.6969999E-02    5.3799296E-12
  1.7005000E-02    2.7379701E-10
  1.7039999E-02    1.0283698E-10
  1.7075000E-02   -2.0671516E-10
  1.7109999E-02   -1.8607167E-10
  1.7145000E-02    8.6690509E-11
  1.7180000E-02    1.8300024E-10
  1.7215000E-02   -1.0614379E-12
  1.7250000E-02   -1.5866136E-10
  1.7285001E-02   -8.3450268E-11
  1.7320000E-02    7.1642636E-11
  1.7355001E-02    8.7040757E-11
  1.7390000E-02   -1.8057351E-11
  1.7425001E-02   -7.9254332E-11
  1.7460000E-02   -4.0377170E-11
  1.7495001E-02    1.3843225E-11
  1.7530000E-02    1.8512728E-11
  1.7565001E-02    1.2243697E-12
  1.7600000E-02   -7.7925149E-12
  1.7635001E-02   -3.0138222E-11
  1.7670000E-02   -5.8570954E-11
  1.7704999E-02   -2.5124635E-11
  1.7740000E-02    6.3903979E-11
  1.7774999E-02    6.8131105E-11
  1.7810000E-02   -7.1300986E-11
  1.7844999E-02   -1.6237880E-10
  1.7880000E-02   -2.2385843E-11
  1.7914999E-02    1.7309999E-10
  1.7950000E-02    9.8910817E-11
  1.7984999E-02   -1.7588515E-10
  1.8020000E-02   -2.2191053E-10
  1.8054999E-02    7.4637921E-11
  1.8090000E-02    2.6891947E-10
  1.8124999E-02    3.1624852E-11
  1.8160000E-02   -2.9506747E-10
  1.8195000E-02   -1.9903476E-10
  1.8230001E-02    1.9192373E-10
  1.8265000E-02    2.8477107E-10
  1.8300001E-02   -6.6964767E-11
  1.8335000E-02   -3.3102712E-10
  1.8370001E-02   -1.0449670E-10
  1.8405000E-02    2.7624220E-10
  1.8440001E-02    2.4139893E-10
  1.8475000E-02   -1.6051667E-10
  1.8510001E-02   -3.3381420E-10
  1.8545000E-02   -1.9090637E-11
  1.8580001E-02    3.1816036E-10
  1.8615000E-02    1.7581524E-10
  1.8650001E-02   -2.3117053E-10
  1.8685000E-02   -2.8676969E-10
  1.8719999E-02    9.3951284E-11
  1.8755000E-02    3.3182918E-10
  1.8789999E-02    7.2066048E-11
  1.8825000E-02   -2.7397951E-10
  1.8859999E-02   -1.7876443E-10
  1.8895000E-02    1.9013993E-10
  1.8929999E-02    2.6652724E-10
  1.8965000E-02   -2.6792804E-11
  1.8999999E-02   -2.1392665E-10
  1.9035000E-02   -4.4383983E-11
  1.9069999E-02    1.7624578E-10
  1.9105000E-02    1.3536186E-10
  1.9140000E-02   -4.2956010E-11
  1.9175000E-02   -9.3213590E-11
  1.9210000E-02   -8.8657449E-12
  1.9245001E-02    6.8519260E-11
  1.9280000E-02    1.0096757E-10
  1.9315001E-02    9.4955432E-11
  1.9350000E-02    1.3327253E-11
  1.9385001E-02   -7.7749897E-11
  1.9420000E-02   -4.7030244E-12
  1.9455001E-02    1.9213545E-10
  1.9490000E-02    1.9941351E-10
  1.9525001E-02   -7.4083815E-11
  1.9560000E-02   -2.3599120E-10
  1.9595001E-02    1.5579080E-11
  1.9630000E-02    3.3031092E-10
  1.9664999E-02    1.9311347E-10
  1.9700000E-02   -2.1555015E-10
  1.9734999E-02   -2.4494728E-10
  1.9770000E-02    1.7818071E-10
  1.9804999E-02    3.9356846E-10
  1.9840000E-02    5.5652989E-11
  1.9874999E-02   -3.0795669E-10
  1.9910000E-02   -1.3625281E-10
  1.9944999E-02    2.9459546E-10
  1.9980000E-02    3.3116457E-10
  2.0014999E-02   -6.0780596E-11
  2.0050000E-02   -2.9652703E-10
  2.0085000E-02   -5.9715864E-11
  2.0120000E-02    2.7877953E-10
  2.0155000E-02    2.2391497E-10
  2.0190001E-02   -1.5221453E-10
  2.0225000E-02   -3.1161274E-10
  2.0260001E-02   -6.3310438E-12
  2.0295000E-02    3.2889588E-10
  2.0330001E-02    1.7868809E-10
  2.0365000E-02   -2.4600566E-10
  2.0400001E-02   -2.8161948E-10
  2.0435000E-02    1.3518346E-10
  2.0470001E-02    3.2922637E-10
  2.0505000E-02   -1.9898262E-11
  2.0540001E-02   -3.4908895E-10
  2.0575000E-02   -1.5759156E-10
  2.0609999E-02    1.8716713E-10
  2.0645000E-02    1.2257917E-10
  2.0679999E-02   -1.9430736E-10
  2.0715000E-02   -2.4957489E-10
  2.0749999E-02   -2.7804406E-11
  2.0785000E-02    8.2705183E-11
  2.0819999E-02   -4.0636348E-11
  2.0855000E-02   -1.7535774E-10
  2.0889999E-02   -1.7365265E-10
  2.0925000E-02   -1.0113967E-10
  2.0959999E-02   -6.0500931E-11
  2.0995000E-02   -8.6940927E-11
  2.1029999E-02   -1.3655911E-10
  2.1065000E-02   -1.1583907E-10
  2.1100000E-02   -2.5004292E-11
  2.1135001E-02   -8.0160887E-12
  2.1170000E-02   -1.1774856E-10
  2.1205001E-02   -1.9080121E-10
  2.1240000E-02   -1.3160835E-10
  2.1275001E-02   -9.3234337E-11
  2.1310000E-02   -1.7966657E-10
  2.1345001E-02   -2.3863783E-10
  2.1380000E-02   -1.5715897E-10
  2.1415001E-02   -7.8696737E-11
  2.1450000E-02   -1.2254990E-10
  2.1485001E-02   -1.7044673E-10
  2.1520000E-02   -1.2139920E-10
  2.1555001E-02   -7.5848335E-11
  2.1590000E-02   -9.4414712E-11
  2.1624999E-02   -6.2570962E-11
  2.1660000E-02    3.6656754E-11
  2.1694999E-02    1.0978005E-11
  2.1730000E-02   -1.8347340E-10
  2.1764999E-02   -2.6330743E-10
  2.1800000E-02   -6.6684623E-11
  2.1834999E-02    9.0410297E-11
  2.1870000E-02   -1.1261432E-10
  2.1904999E-02   -4.0642559E-10
  2.1940000E-02   -3.0265754E-10
  2.1974999E-02    1.0348490E-10
  2.2010000E-02    2.4067795E-10
  2.2045000E-02   -6.6511963E-11
  2.2080000E-02   -3.1610900E-10
  2.2115000E-02   -6.6935436E-11
  2.2150001E-02    3.8346176E-10
  2.2185000E-02    4.1832895E-10
  2.2220001E-02    1.2464518E-11
  2.2255000E-02   -2.7629485E-10
  2.2290001E-02   -1.2920066E-10
  2.2325000E-02    1.8253173E-10
  2.2360001E-02    1.9945989E-10
  2.2395000E-02   -1.5695678E-10
  2.2430001E-02   -3.8877968E-10
  2.2465000E-02   -6.9717170E-11
  2.2500001E-02    4.0008205E-10
  2.2535000E-02    3.7400097E-10
  2.2569999E-02    1.7829863E-11
  2.2605000E-02   -4.1734102E-11
  2.2639999E-02    2.6439345E-10
  2.2675000E-02    4.4007573E-10
  2.2709999E-02    2.0599529E-10
  2.2745000E-02   -6.2621193E-11
  2.2779999E-02    5.8164380E-11
  2.2815000E-02    2.3775848E-10
  2.2849999E-02    5.6394531E-11
  2.2885000E-02   -7.6083022E-11
  2.2919999E-02    1.4392237E-10
  2.2955000E-02    2.1556594E-10
  2.2990000E-02    1.6991344E-11
  2.3025000E-02    4.9636194E-11
  2.3060000E-02    2.6264713E-10
  2.3095001E-02    2.0596015E-10
  2.3130000E-02   -4.6341063E-11
  2.3165001E-02   -5.4086832E-11
  2.3200000E-02    2.8650282E-10
  2.3235001E-02    4.0238865E-10
  2.3270000E-02   -9.3752131E-11
  2.3305001E-02   -3.2260652E-10
  2.3340000E-02    3.2420538E-10
  2.3375001E-02    5.9056432E-10
  2.3410000E-02   -2.0123427E-10
  2.3445001E-02   -5.9543753E-10
  2.3480000E-02    2.4378386E-11
  2.3514999E-02    3.9956624E-10
  2.3550000E-02    4.0521295E-11
  2.3584999E-02   -3.0490102E-10
  2.3620000E-02   -2.0012705E-10
  2.3654999E-02    1.3296363E-10
  2.3690000E-02    1.6969333E-10
  2.3724999E-02   -1.3704418E-10
  2.3760000E-02   -2.1433103E-10
  2.3794999E-02   -1.5205302E-10
  2.3830000E-02   -2.8577107E-10
  2.3864999E-02   -6.8998113E-11
  2.3900000E-02    2.7336416E-10
  2.3934999E-02   -2.4303004E-10
  2.3970000E-02   -7.1761658E-10
  2.4005000E-02   -6.6050339E-11
  2.4040001E-02    3.6496142E-10
  2.4075000E-02   -2.5117219E-10
  2.4110001E-02   -6.5727862E-10
  2.4145000E-02   -4.1477380E-10
  2.4180001E-02   -1.7002341E-10
  2.4215000E-02   -1.1153677E-10
  2.4250001E-02   -3.0291547E-10
  2.4285000E-02   -5.0835847E-10
  2.4320001E-02   -2.9958294E-10
  2.4355000E-02   -6.1940009E-11
  2.4390001E-02   -3.1148379E-11
  2.4425000E-02    1.8336411E-11
  2.4460001E-02   -3.6588499E-10
  2.4495000E-02   -8.4501478E-10
  2.4529999E-02   -2.1996814E-10
  2.4565000E-02    4.8963877E-10
  2.4599999E-02   -2.4306324E-10
  2.4635000E-02   -1.0519617E-09
  2.4669999E-02   -5.5283406E-10
  2.4705000E-02    3.0501662E-10
  2.4739999E-02    4.9013021E-10
  2.4775000E-02   -2.3942265E-10
  2.4809999E-02   -1.1449903E-09
  2.4845000E-02   -5.7977689E-10
  2.4879999E-02    8.3609403E-10
  2.4915000E-02    5.1554444E-10
  2.4950000E-02   -1.0558400E-09
  2.4985000E-02   -1.1319721E-09
  2.5020000E-02    3.0934769E-10
  2.5055001E-02    9.8773068E-10
  2.5090000E-02   -5.8851181E-11
  2.5125001E-02   -1.1155805E-09
  2.5160000E-02   -2.3279560E-10
  2.5195001E-02    1.0364812E-09
  2.5230000E-02    1.9965103E-10
  2.5265001E-02   -9.8585373E-10
  2.5300000E-02   -2.6457073E-10
  2.5335001E-02    4.6735976E-10
  2.5370000E-02   -1.6372041E-10
  2.5405001E-02   -5.5090049E-10
  2.5440000E-02   -2.1002583E-10
  2.5474999E-02    7.5946513E-11
  2.5510000E-02    3.3338607E-10
  2.5544999E-02    4.9381432E-10
  2.5580000E-02    2.9580632E-10
  2.5614999E-02   -1.4238792E-10
  2.5650000E-02   -3.9098050E-10
  2.5684999E-02    2.6025643E-10
  2.5720000E-02    8.9559676E-10
  2.5754999E-02   -2.9314945E-10
  2.5790000E-02   -1.4867693E-09
  2.5824999E-02   -1.7666187E-10
  2.5860000E-02    1.2146063E-09
  2.5895000E-02    4.3518419E-10
  2.5930000E-02   -5.1645671E-10
  2.5965000E-02   -5.1760413E-10
  2.6000001E-02   -1.3781022E-10
  2.6035000E-02    6.9949169E-10
  2.6070001E-02    8.8603996E-10
  2.6105000E-02   -2.7168656E-10
  2.6140001E-02   -9.2500257E-10
  2.6175000E-02   -3.3516748E-10
  2.6210001E-02    6.2866690E-10
  2.6245000E-02    1.2146197E-09
  2.6280001E-02   -4.8389411E-11
  2.6315000E-02   -1.9153508E-09
  2.6350001E-02   -5.6426458E-10
  2.6385000E-02    1.8545184E-09
  2.6419999E-02    4.6375701E-10
  2.6455000E-02   -2.0323603E-09
  2.6489999E-02   -1.2212121E-09
  2.6525000E-02    1.0049583E-09
  2.6559999E-02    1.4358542E-09
  2.6595000E-02   -3.3645148E-10
  2.6629999E-02   -1.8127485E-09
  2.6665000E-02    1.1464568E-10
  2.6699999E-02    2.3202080E-09
  2.6735000E-02   -1.8354630E-10
  2.6769999E-02   -2.9233878E-09
  2.6805000E-02   -4.8050236E-10
  2.6839999E-02    2.2682964E-09
  2.6875000E-02    8.0261048E-10
  2.6910000E-02   -1.4964944E-09
  2.6945001E-02   -1.4129431E-09
  2.6980000E-02    4.2223300E-10