 -4.8000002E-03    1.0000000E-24
 -4.7650002E-03    1.0000002E-24
 -4.7300002E-03    1.0000001E-24
 -4.6950001E-03    1.0000000E-24
 -4.6600001E-03    1.0000003E-24
 -4.6250001E-03    1.0000002E-24
 -4.5900000E-03    1.0000001E-24
 -4.5550000E-03    1.0000002E-24
 -4.5200000E-03    9.9999982E-25
 -4.4849999E-03    1.0000001E-24
 -4.4499999E-03    1.0000002E-24
 -4.4149999E-03    1.0000000E-24
 -4.3799998E-03    9.9999982E-25
 -4.3449998E-03    1.0000003E-24
 -4.3100002E-03    1.0000006E-24
 -4.2750002E-03    1.0000000E-24
 -4.2400002E-03    9.9999992E-25
 -4.2050001E-03    1.0000003E-24
 -4.1700001E-03    1.0000002E-24
 -4.1350001E-03    9.9999972E-25
 -4.1000000E-03    9.9999982E-25
 -4.0650000E-03    1.0000002E-24
 -4.0300000E-03    1.0000001E-24
 -3.9949999E-03    9.9999972E-25
 -3.9599999E-03    1.0000000E-24
 -3.9249999E-03    1.0000003E-24
 -3.8900001E-03    9.9999992E-25
 -3.8550000E-03    1.0000000E-24
 -3.8200000E-03    1.0000004E-24
 -3.7849999E-03    1.0000003E-24
 -3.7499999E-03    9.9999972E-25
 -3.7150001E-03    1.0000003E-24
 -3.6800001E-03    1.0000007E-24
 -3.6450000E-03    9.9999982E-25
 -3.6100000E-03    9.9999963E-25
 -3.5750000E-03    1.0000002E-24
 -3.5399999E-03    1.0000000E-24
 -3.5049999E-03    9.9999972E-25
 -3.4700001E-03    1.0000007E-24
 -3.4350001E-03    1.0000005E-24
 -3.4000000E-03    9.9999953E-25
 -3.3650000E-03    9.9999982E-25
 -3.3300000E-03    1.0000004E-24
 -3.2949999E-03    9.9999982E-25
 -3.2599999E-03    9.9999992E-25
 -3.2250001E-03    1.0000005E-24
 -3.1900001E-03    1.0000007E-24
 -3.1550000E-03    9.9999963E-25
 -3.1200000E-03    9.9999953E-25
 -3.0850000E-03    1.0000006E-24
 -3.0499999E-03    1.0000009E-24
 -3.0149999E-03    9.9999943E-25
 -2.9800001E-03    9.9999933E-25
 -2.9450001E-03    1.0000012E-24
 -2.9100000E-03    1.0000006E-24
 -2.8750000E-03    9.9999893E-25
 -2.8400000E-03    1.0000002E-24
 -2.8049999E-03    1.0000013E-24
 -2.7699999E-03    9.9999972E-25
 -2.7350001E-03    9.9999943E-25
 -2.7000001E-03    1.0000008E-24
 -2.6650000E-03    1.0000011E-24
 -2.6300000E-03    9.9999972E-25
 -2.5950000E-03    9.9999982E-25
 -2.5599999E-03    1.0000002E-24
 -2.5249999E-03    9.9999943E-25
 -2.4900001E-03    9.9999943E-25
 -2.4550001E-03    1.0000004E-24
 -2.4200000E-03    1.0000011E-24
 -2.3850000E-03    1.0000005E-24
 -2.3500000E-03    9.9999953E-25
 -2.3149999E-03    9.9999953E-25
 -2.2799999E-03    9.9999963E-25
 -2.2450001E-03    9.9999963E-25
 -2.2100001E-03    1.0000003E-24
 -2.1750000E-03    1.0000007E-24
 -2.1400000E-03    1.0000003E-24
 -2.1050000E-03    1.0000004E-24
 -2.0699999E-03    1.0000008E-24
 -2.0349999E-03    1.0000003E-24
 -2.0000001E-03    9.9999982E-25
 -1.9650001E-03    9.9999972E-25
 -1.9300000E-03    1.0000001E-24
 -1.8950000E-03    9.9999972E-25
 -1.8600000E-03    9.9999972E-25
 -1.8250000E-03    1.0000008E-24
 -1.7900000E-03    1.0000006E-24
 -1.7550000E-03    9.9999943E-25
 -1.7199999E-03    9.9999953E-25
 -1.6850000E-03    1.0000005E-24
 -1.6500000E-03    1.0000002E-24
 -1.6150000E-03    9.9999982E-25
 -1.5800000E-03    1.0000002E-24
 -1.5450000E-03    1.0000001E-24
 -1.5100000E-03    1.0000001E-24
 -1.4750001E-03    1.0000002E-24
 -1.4400000E-03    9.9999982E-25
 -1.4050000E-03    1.0000006E-24
 -1.3700000E-03    1.0000011E-24
 -1.3350000E-03    9.9999992E-25
 -1.3000000E-03    9.9999913E-25
 -1.2650000E-03    1.0000002E-24
 -1.2300001E-03    9.9999982E-25
 -1.1950000E-03    9.9999903E-25
 -1.1600000E-03    1.0000006E-24
 -1.1250000E-03    1.0000011E-24
 -1.0900000E-03    9.9999972E-25
 -1.0550000E-03    9.9999992E-25
 -1.0200000E-03    1.0000004E-24
 -9.8500005E-04    9.9999933E-25
 -9.5000002E-04    9.9999953E-25
 -9.1499998E-04    1.0000011E-24
 -8.8000001E-04    1.0000001E-24
 -8.4499997E-04    9.9999874E-25
 -8.1000000E-04    1.0000000E-24
 -7.7500002E-04    1.0000008E-24
 -7.3999999E-04    1.0000000E-24
 -7.0500001E-04    9.9999963E-25
 -6.6999998E-04    1.0000009E-24
 -6.3500000E-04    1.0000009E-24
 -6.0000003E-04    9.9999982E-25
 -5.6499999E-04    1.0000000E-24
 -5.3000002E-04    1.0000003E-24
 -4.9499999E-04    9.9999992E-25
 -4.6000001E-04    1.0000002E-24
 -4.2500001E-04    1.0000002E-24
 -3.9000000E-04    9.9999923E-25
 -3.5500000E-04    9.9999982E-25
 -3.1999999E-04    1.0000010E-24
 -2.8499999E-04    1.0000007E-24
 -2.5000001E-04    9.9999992E-25
 -2.1499999E-04    9.9999992E-25
 -1.8000000E-04    9.9999963E-25
 -1.4500000E-04    9.9999963E-25
 -1.1000000E-04    1.0000003E-24
 -7.5000004E-05    1.0000005E-24
 -3.9999999E-05    1.0000003E-24
 -4.9999999E-06    1.0000005E-24
  2.9999999E-05    9.9999992E-25
  6.5000000E-05    9.9999893E-25
  9.9999997E-05    9.9999953E-25
  1.3499999E-04    1.0000009E-24
  1.7000000E-04    1.0000009E-24
  2.0500000E-04    9.9999943E-25
  2.3999999E-04    9.9999854E-25
  2.7500000E-04    1.0000010E-24
  3.1000000E-04    1.0000015E-24
  3.4500001E-04    9.9999913E-25
  3.8000001E-04    1.0000001E-24
  4.1499999E-04    1.0000021E-24
  4.4999999E-04    9.9999923E-25
  4.8500000E-04    9.9999815E-25
  5.2000000E-04    1.0000012E-24
  5.5499998E-04    1.0000009E-24
  5.9000001E-04    9.9999992E-25
  6.2499999E-04    1.0000013E-24
  6.6000002E-04    1.0000000E-24
  6.9500000E-04    9.9999834E-25
  7.3000003E-04    1.0000006E-24
  7.6500000E-04    1.0000005E-24
  7.9999998E-04    9.9999815E-25
  8.3500001E-04    9.9999972E-25
  8.6999999E-04    1.0000013E-24
  9.0500002E-04    9.9999982E-25
  9.4000000E-04    9.9999953E-25
  9.7499997E-04    1.0000012E-24
  1.0100000E-03    1.0000015E-24
  1.0450000E-03    1.0000002E-24
  1.0800000E-03    9.9999864E-25
  1.1150000E-03    1.0000004E-24
  1.1500000E-03    1.0000021E-24
  1.1849999E-03    9.9999963E-25
  1.2200000E-03    9.9999923E-25
  1.2550000E-03    1.0000013E-24
  1.2900000E-03    9.9999953E-25
  1.3250000E-03    9.9999844E-25
  1.3600000E-03    1.0000008E-24
  1.3950000E-03    9.9999953E-25
  1.4299999E-03    9.9999805E-25
  1.4650000E-03    1.0000015E-24
  1.5000000E-03    1.0000014E-24
  1.5350000E-03    9.9999795E-25
  1.5700000E-03    1.0000004E-24
  1.6050000E-03    1.0000029E-24
  1.6400000E-03    9.9999963E-25
  1.6749999E-03    9.9999903E-25
  1.7100000E-03    1.0000016E-24
  1.7450000E-03    1.0000003E-24
  1.7800000E-03    9.9999824E-25
  1.8150000E-03    1.0000002E-24
  1.8500000E-03    1.0000007E-24
  1.8850000E-03    9.9999903E-25
  1.9200000E-03    1.0000012E-24
  1.9550000E-03    1.0000024E-24
  1.9900000E-03    1.0000022E-24
  2.0250001E-03    9.9999824E-25
  2.0600001E-03    9.9999972E-25
  2.0949999E-03    9.9999923E-25
  2.1299999E-03    9.9999696E-25
  2.1650000E-03    1.0000006E-24
  2.2000000E-03    9.9999726E-25
  2.2350000E-03    9.9999617E-25
  2.2700001E-03    1.0000174E-24
  2.3050001E-03    1.0000040E-24
  2.3399999E-03    9.9998621E-25
  2.3749999E-03    1.0000041E-24
  2.4100000E-03    9.9999824E-25
  2.4450000E-03    1.0000191E-24
  2.4800000E-03    1.0000160E-24
  2.5150001E-03    9.9999706E-25
  2.5500001E-03    9.9998878E-25
  2.5849999E-03    1.0000169E-24
  2.6199999E-03    9.9997517E-25
  2.6550000E-03    9.9998266E-25
  2.6900000E-03    1.0001375E-24
  2.7250000E-03    1.0000618E-24
  2.7600001E-03    9.9993099E-25
  2.7950001E-03    1.0000021E-24
  2.8299999E-03    9.9998543E-25
  2.8649999E-03    9.9993740E-25
  2.9000000E-03    1.0005068E-24
  2.9350000E-03    1.0002499E-24
  2.9700000E-03    9.9987410E-25
  3.0050001E-03    1.0003795E-24
  3.0400001E-03    9.9957808E-25
  3.0749999E-03    9.9957108E-25
  3.1099999E-03    1.0015466E-24
  3.1450000E-03    1.0000792E-24
  3.1800000E-03    9.9715627E-25
  3.2150000E-03    9.9896089E-25
  3.2500001E-03    1.0008092E-24
  3.2850001E-03    9.9793389E-25
  3.3199999E-03    9.9655575E-25
  3.3549999E-03    1.0033206E-24
  3.3900000E-03    1.0055157E-24
  3.4250000E-03    9.9962787E-25
  3.4600000E-03    9.9399925E-25
  3.4950001E-03    9.9849931E-25
  3.5300001E-03    1.0079014E-24
  3.5649999E-03    1.0045169E-24
  3.5999999E-03    9.8972925E-25
  3.6350000E-03    9.7999204E-25
  3.6700000E-03    1.0101428E-24
  3.7050000E-03    1.0482313E-24
  3.7400001E-03    9.9490595E-25
  3.7750001E-03    9.0463009E-25
  3.8099999E-03    9.5835221E-25
  3.8449999E-03    1.1817669E-24
  3.8800000E-03    1.0515280E-24
  3.9149998E-03    7.7619954E-25
  3.9499998E-03    8.3564923E-25
  3.9849998E-03    1.3569860E-24
  4.0199999E-03    1.4906444E-24
  4.0549999E-03    6.4115257E-25
  4.0899999E-03    2.0461562E-25
  4.1250000E-03    1.2652530E-24
  4.1600000E-03    2.0204079E-24
  4.1950000E-03    6.8765789E-25
  4.2300001E-03   -7.6586457E-25
  4.2650001E-03    6.9294420E-25
  4.3000001E-03    3.8724740E-24
  4.3350002E-03    3.1023336E-24
  4.3700002E-03   -2.3770404E-24
  4.4049998E-03   -3.1449062E-24
  4.4399998E-03    4.9657733E-24
  4.4749998E-03    7.9611495E-24
  4.5099999E-03   -3.4589839E-24
  4.5449999E-03   -1.0336693E-23
  4.5799999E-03    2.6900257E-24
  4.6150000E-03    1.7149203E-23
  4.6500000E-03    5.1550195E-24
  4.6850001E-03   -2.2935468E-23
  4.7200001E-03   -1.5471325E-23
  4.7550001E-03    3.0735532E-23
  4.7900002E-03    3.6208100E-23
  4.8250002E-03   -2.9681519E-23
  4.8600002E-03   -5.8425935E-23
  4.8949998E-03    2.7125639E-23
  4.9299998E-03    9.7812195E-23
  4.9649999E-03    4.7451137E-25
  4.9999999E-03   -1.4392251E-22
  5.0349999E-03   -5.0932419E-23
  5.0700000E-03    1.8741501E-22
  5.1050000E-03    1.3468614E-22
  5.1400000E-03   -2.1443451E-22
  5.1750001E-03   -2.6106952E-22
  5.2100001E-03    1.9482113E-22
  5.2450001E-03    4.4855691E-22
  5.2800002E-03   -8.5545787E-23
  5.3150002E-03   -7.0605969E-22
  5.3500002E-03   -1.5879670E-22
  5.3849998E-03    9.9196363E-22
  5.4199998E-03    6.0245002E-22
  5.4549999E-03   -1.1800508E-21
  5.4899999E-03   -1.2671441E-21
  5.5249999E-03    1.1247365E-21
  5.5600000E-03    2.1558639E-21
  5.5950000E-03   -7.4228030E-22
  5.6300000E-03   -3.3703811E-21
  5.6650001E-03   -3.3688627E-22
  5.7000001E-03    4.6647255E-21
  5.7350001E-03    2.2288135E-21
  5.7700002E-03   -5.7268363E-21
  5.8050002E-03   -5.3374552E-21
  5.8400002E-03    5.6903103E-21
  5.8749998E-03    9.6224014E-21
  5.9099998E-03   -4.0731323E-21
  5.9449999E-03   -1.5339601E-20
  5.9799999E-03   -4.2235992E-22
  6.0149999E-03    2.1684045E-20
  6.0500000E-03    9.5748103E-21
  6.0850000E-03   -2.6984187E-20
  6.1200000E-03   -2.4055514E-20
  6.1550001E-03    2.8812219E-20
  6.1900001E-03    4.4251413E-20
  6.2250001E-03   -2.3401883E-20
  6.2600002E-03   -7.0025014E-20
  6.2950002E-03    6.4218433E-21
  6.3299998E-03    9.8659014E-20
  6.3649998E-03    2.8536558E-20
  6.3999998E-03   -1.2424784E-19
  6.4349999E-03   -8.8774167E-20
  6.4699999E-03    1.3536777E-19
  6.5049999E-03    1.7265008E-19
  6.5400000E-03   -1.2021416E-19
  6.5750000E-03   -2.8340048E-19
  6.6100000E-03    5.7152203E-20
  6.6450001E-03    4.0787190E-19
  6.6800001E-03    7.7328663E-20
  6.7150001E-03   -5.2723500E-19
  6.7500002E-03   -3.1035512E-19
  6.7850002E-03    5.9367290E-19
  6.8199998E-03    6.4977607E-19
  6.8549998E-03   -5.5059437E-19
  6.8899998E-03   -1.0867757E-18
  6.9249999E-03    3.3550771E-19
  6.9599999E-03    1.6035885E-18
  6.9949999E-03    1.4383711E-19
  7.0300000E-03   -2.1153659E-18
  7.0650000E-03   -9.8814800E-19
  7.1000000E-03    2.4410209E-18
  7.1350001E-03    2.2121632E-18
  7.1700001E-03   -2.4266361E-18
  7.2050001E-03   -3.8428690E-18
  7.2400002E-03    1.7727426E-18
  7.2750002E-03    5.7614122E-18
  7.3099998E-03   -1.7088362E-19
  7.3449998E-03   -7.6672637E-18
  7.3799998E-03   -2.7116753E-18
  7.4149999E-03    9.0039520E-18
  7.4499999E-03    6.9218101E-18
  7.4850000E-03   -9.1918138E-18
  7.5200000E-03   -1.2511604E-17
  7.5550000E-03    7.3206171E-18
  7.5900001E-03    1.9057470E-17
  7.6250001E-03   -2.3312820E-18
  7.6600001E-03   -2.5533802E-17
  7.6950002E-03   -6.6154812E-18
  7.7300002E-03    3.0488663E-17
  7.7650002E-03    2.0049669E-17
  7.7999998E-03   -3.1534924E-17
  7.8349998E-03   -3.7468906E-17
  7.8699999E-03    2.6308828E-17
  7.9049999E-03    5.7753168E-17
  7.9399999E-03   -1.1505962E-17
  7.9750000E-03   -7.7675337E-17
  8.0100000E-03   -1.4504690E-17
  8.0450000E-03    9.3074111E-17
  8.0800001E-03    5.3683668E-17
  8.1150001E-03   -9.7576402E-17
  8.1500001E-03   -1.0454494E-16
  8.1850002E-03    8.3296221E-17
  8.2200002E-03    1.6184959E-16
  8.2550002E-03   -4.3364904E-17
  8.2900003E-03   -2.1702128E-16
  8.3250003E-03   -2.7547606E-17
  8.3600003E-03    2.5817411E-16
  8.3950004E-03    1.3213592E-16
  8.4300004E-03   -2.6847691E-16
  8.4650004E-03   -2.6508920E-16
  8.5000005E-03    2.2997823E-16
  8.5349996E-03    4.1195979E-16
  8.5699996E-03   -1.2561505E-16
  8.6049996E-03   -5.5012995E-16
  8.6399997E-03   -5.5501602E-17
  8.6749997E-03    6.4912539E-16
  8.7099997E-03    3.1402696E-16
  8.7449998E-03   -6.6759537E-16
  8.7799998E-03   -6.3435674E-16
  8.8149998E-03    5.6481713E-16
  8.8499999E-03    9.7887839E-16
  8.8849999E-03   -3.0932389E-16
  8.9199999E-03   -1.2933575E-15
  8.9550000E-03   -1.1862925E-16
  8.9900000E-03    1.4998463E-15
  9.0250000E-03    7.0986798E-16
  9.0600001E-03   -1.5119030E-15
  9.0950001E-03   -1.4179037E-15
  9.1300001E-03    1.2458930E-15
  9.1650002E-03    2.1512879E-15
  9.2000002E-03   -6.4543672E-16
  9.2350002E-03   -2.7739988E-15
  9.2700003E-03   -2.9786739E-16
  9.3050003E-03    3.1403475E-15
  9.3400003E-03    1.5554599E-15
  9.3750004E-03   -3.0580098E-15
  9.4100004E-03   -2.9885637E-15
  9.4450004E-03    2.3952912E-15
  9.4799995E-03    4.3895877E-15
  9.5149996E-03   -1.0667706E-15
  9.5499996E-03   -5.4860571E-15
  9.5849996E-03   -9.1301978E-16
  9.6199997E-03    5.9498059E-15
  9.6549997E-03    3.3942328E-15
  9.6899997E-03   -5.4698055E-15
  9.7249998E-03   -6.0380557E-15
  9.7599998E-03    3.8443433E-15
  9.7949998E-03    8.4226026E-15
  9.8299999E-03   -9.8963867E-16
  9.8649999E-03   -9.9738290E-15
  9.8999999E-03   -2.9243819E-15
  9.9350000E-03    1.0111261E-14
  9.9700000E-03    7.4553409E-15
  1.0005000E-02   -8.3492969E-15
  1.0040000E-02   -1.1868023E-14
  1.0075000E-02    4.4374044E-15
  1.0110000E-02    1.5249686E-14
  1.0145000E-02    1.4880080E-15
  1.0180000E-02   -1.6542186E-14
  1.0215000E-02   -8.8210901E-15
  1.0250000E-02    1.4817056E-14
  1.0285000E-02    1.6451553E-14
  1.0320000E-02   -9.4580300E-15
  1.0355000E-02   -2.2795776E-14
  1.0390000E-02    4.5912828E-16
  1.0425000E-02    2.6006676E-14
  1.0460000E-02    1.1318846E-14
  1.0495000E-02   -2.4374440E-14
  1.0530000E-02   -2.4149152E-14
  1.0565000E-02    1.6651826E-14
  1.0600000E-02    3.5457873E-14
  1.0635000E-02   -2.5198472E-15
  1.0670000E-02   -4.2115047E-14
  1.0705000E-02   -1.6967584E-14
  1.0740000E-02    4.0885796E-14
  1.0775000E-02    3.9187766E-14
  1.0810000E-02   -2.9273259E-14
  1.0845000E-02   -5.9960466E-14
  1.0880000E-02    6.1492072E-15
  1.0915000E-02    7.3813724E-14
  1.0950000E-02    2.7239372E-14
  1.0985000E-02   -7.5099669E-14
  1.1020000E-02   -6.7079758E-14
  1.1055000E-02    5.8877904E-14
  1.1090000E-02    1.0672279E-13
  1.1125000E-02   -2.2386230E-14
  1.1160000E-02   -1.3729205E-13
  1.1195000E-02   -3.3778132E-14
  1.1230000E-02    1.4872764E-13
  1.1265000E-02    1.0445688E-13
  1.1300000E-02   -1.3170907E-13
  1.1335000E-02   -1.7960697E-13
  1.1370000E-02    7.9813828E-14
  1.1405000E-02    2.4494816E-13
  1.1440000E-02    8.1342192E-15
  1.1475000E-02   -2.8364672E-13
  1.1510000E-02   -1.2649944E-13
  1.1545000E-02    2.7872759E-13
  1.1580000E-02    2.6140516E-13
  1.1615000E-02   -2.1685567E-13
  1.1650000E-02   -3.9149559E-13
  1.1685000E-02    9.1698920E-14
  1.1720000E-02    4.8960667E-13
  1.1755000E-02    9.2358006E-14
  1.1790000E-02   -5.2704336E-13
  1.1825000E-02   -3.1861241E-13
  1.1860000E-02    4.7785544E-13
  1.1895000E-02    5.5695092E-13
  1.1930000E-02   -3.2594370E-13
  1.1965000E-02   -7.6726028E-13
  1.2000000E-02    6.9444369E-14
  1.2035000E-02    9.0334429E-13
  1.2070000E-02    2.7442789E-13
  1.2105000E-02   -9.2064128E-13
  1.2140000E-02   -6.6798021E-13
  1.2175000E-02    7.8482766E-13
  1.2210000E-02    1.0548564E-12
  1.2245000E-02   -4.8122617E-13
  1.2280000E-02   -1.3666359E-12
  1.2315000E-02    2.1542553E-14
  1.2350000E-02    1.5322650E-12
  1.2385000E-02    5.5201866E-13
  1.2420000E-02   -1.4906509E-12
  1.2455000E-02   -1.1680446E-12
  1.2490000E-02    1.2033236E-12
  1.2525000E-02    1.7315579E-12
  1.2560000E-02   -6.6783411E-13
  1.2595000E-02   -2.1381664E-12
  1.2630000E-02   -7.5932025E-14
  1.2665000E-02    2.2903957E-12
  1.2700000E-02    9.4463651E-13
  1.2735000E-02   -2.1164893E-12
  1.2770000E-02   -1.8185811E-12
  1.2805000E-02    1.5872314E-12
  1.2840000E-02    2.5554389E-12
  1.2875000E-02   -7.3047417E-13
  1.2910000E-02   -3.0137711E-12
  1.2945000E-02   -3.6524386E-13
  1.2980000E-02    3.0790049E-12
  1.3015000E-02    1.5585713E-12
  1.3050000E-02   -2.6867538E-12
  1.3085000E-02   -2.6723923E-12
  1.3120000E-02    1.8401832E-12
  1.3155000E-02    3.5175905E-12
  1.3190000E-02   -6.2335407E-13
  1.3225000E-02   -3.9299783E-12
  1.3260000E-02   -8.0617023E-13
  1.3295000E-02    3.8043514E-12
  1.3330000E-02    2.2417218E-12
  1.3365000E-02   -3.1145577E-12
  1.3400000E-02   -3.4573254E-12
  1.3435000E-02    1.9223425E-12
  1.3470000E-02    4.2358183E-12
  1.3505000E-02   -3.8728089E-13
  1.3540000E-02   -4.4171854E-12
  1.3575000E-02   -1.2520075E-12
  1.3610000E-02    3.9423820E-12
  1.3645000E-02    2.7277954E-12
  1.3680000E-02   -2.8626528E-12
  1.3715000E-02   -3.7899918E-12
  1.3750000E-02    1.3244908E-12
  1.3785000E-02    4.2264642E-12
  1.3820000E-02    4.2255996E-13
  1.3855000E-02   -3.9145458E-12
  1.3890000E-02   -2.0440004E-12
  1.3925000E-02    2.8908178E-12
  1.3960000E-02    3.2092434E-12
  1.3995000E-02   -1.3537988E-12
  1.4030000E-02   -3.6826310E-12
  1.4065000E-02   -4.0413956E-13
  1.4100000E-02    3.3346379E-12
  1.4135000E-02    2.0174301E-12
  1.4170000E-02   -2.1739951E-12
  1.4205000E-02   -3.0655864E-12
  1.4240000E-02    4.3759045E-13
  1.4275000E-02    3.2146471E-12
  1.4310000E-02    1.4294349E-12
  1.4345000E-02   -2.3732099E-12
  1.4380000E-02   -2.9493036E-12
  1.4415000E-02    6.6328475E-13
  1.4450000E-02    3.6932670E-12
  1.4485000E-02    1.6263766E-12
  1.4520000E-02   -3.2791877E-12
  1.4555000E-02   -3.9517231E-12
  1.4590000E-02    1.5582919E-12
  1.4625000E-02    5.5822248E-12
  1.4660000E-02    1.1596950E-12
  1.4695000E-02   -5.9705387E-12
  1.4730000E-02   -4.2796123E-12
  1.4765000E-02    4.9034323E-12
  1.4800000E-02    7.1962210E-12
  1.4835000E-02   -2.3124553E-12
  1.4870000E-02   -9.1626533E-12
  1.4905000E-02   -1.5765589E-12
  1.4940000E-02    9.2888960E-12
  1.4975000E-02    5.8405620E-12
  1.5010000E-02   -7.2141234E-12
  1.5045000E-02   -9.2295078E-12
  1.5080000E-02    3.4596850E-12
  1.5115000E-02    1.1004431E-11
  1.5150000E-02    1.2362145E-12
  1.5185000E-02   -1.0828846E-11
  1.5220000E-02   -6.2413668E-12
  1.5255000E-02    8.2529773E-12
  1.5290000E-02    1.0364406E-11
  1.5325000E-02   -3.3981793E-12
  1.5360000E-02   -1.2037315E-11
  1.5395000E-02   -2.2204669E-12
  1.5430000E-02    1.0848219E-11
  1.5465000E-02    6.8155455E-12
  1.5500000E-02   -7.7662850E-12
  1.5535000E-02   -9.7030587E-12
  1.5570000E-02    3.6800636E-12
  1.5605000E-02    1.0616831E-11
  1.5640000E-02    7.8406444E-13
  1.5675001E-02   -8.9094747E-12
  1.5710000E-02   -3.9716373E-12
  1.5745001E-02    5.0496304E-12
  1.5780000E-02    4.0357466E-12
  1.5814999E-02   -1.3983168E-12
  1.5850000E-02   -1.1631016E-12
  1.5884999E-02    1.1346903E-13
  1.5920000E-02   -2.7140909E-12
  1.5954999E-02   -1.4712382E-12
  1.5990000E-02    6.1667360E-12
  1.6024999E-02    5.2507291E-12
  1.6060000E-02   -8.0504544E-12
  1.6094999E-02   -1.1242611E-11
  1.6130000E-02    6.4638347E-12
  1.6164999E-02    1.7687556E-11
  1.6200000E-02   -1.1775068E-13
  1.6235000E-02   -2.1092064E-11
  1.6270000E-02   -9.4224645E-12
  1.6305000E-02    1.9086266E-11
  1.6340001E-02    1.8973923E-11
  1.6375000E-02   -1.1496438E-11
  1.6410001E-02   -2.5596568E-11
  1.6445000E-02   -4.5206845E-13
  1.6480001E-02    2.7049796E-11
  1.6515000E-02    1.4778324E-11
  1.6550001E-02   -2.1394468E-11
  1.6585000E-02   -2.7884637E-11
  1.6620001E-02    8.6357041E-12
  1.6655000E-02    3.5867007E-11
  1.6690001E-02    9.0384922E-12
  1.6725000E-02   -3.5715146E-11
  1.6759999E-02   -2.7530389E-11
  1.6795000E-02    2.6698695E-11
  1.6829999E-02    4.2473063E-11
  1.6865000E-02   -9.9553707E-12
  1.6899999E-02   -4.9450499E-11
  1.6935000E-02   -1.0578963E-11
  1.6969999E-02    4.6256735E-11
  1.7005000E-02    2.9834975E-11
  1.7039999E-02   -3.3167701E-11
  1.7075000E-02   -4.2477129E-11
  1.7109999E-02    1.3830463E-11
  1.7145000E-02    4.5771258E-11
  1.7180000E-02    7.4380103E-12
  1.7215000E-02   -3.8610122E-11
  1.7250000E-02   -2.5468941E-11
  1.7285001E-02    2.2508830E-11
  1.7320000E-02    3.5814778E-11
  1.7355001E-02   -8.2681930E-13
  1.7390000E-02   -3.4387670E-11
  1.7425001E-02   -1.8835140E-11
  1.7460000E-02    2.3015862E-11
  1.7495001E-02    3.0589142E-11
  1.7530000E-02   -7.4414277E-12
  1.7565001E-02   -3.3181163E-11
  1.7600000E-02   -6.7194952E-12
  1.7635001E-02    2.9642597E-11
  1.7670000E-02    1.8778232E-11
  1.7704999E-02   -1.9393948E-11
  1.7740000E-02   -2.4729149E-11
  1.7774999E-02    4.9598450E-12
  1.7810000E-02    2.0691083E-11
  1.7844999E-02    6.5036813E-12
  1.7880000E-02   -8.6685121E-12
  1.7914999E-02   -8.4494382E-12
  1.7950000E-02   -1.9771864E-12
  1.7984999E-02    5.4604082E-12
  1.8020000E-02    1.0131936E-11
  1.8054999E-02    2.2777906E-13
  1.8090000E-02   -1.6887524E-11
  1.8124999E-02   -1.1121278E-11
  1.8160000E-02    1.7111796E-11
  1.8195000E-02    2.4653628E-11
  1.8230001E-02   -4.2506363E-12
  1.8265000E-02   -2.6823578E-11
  1.8300001E-02   -1.0763512E-11
  1.8335000E-02    1.6813223E-11
  1.8370001E-02    1.7484184E-11
  1.8405000E-02   -5.1486294E-12
  1.8440001E-02   -1.9895714E-11
  1.8475000E-02   -6.3566743E-12
  1.8510001E-02    2.3007199E-11
  1.8545000E-02    2.6515595E-11
  1.8580001E-02   -1.4323017E-11
  1.8615000E-02   -4.6035467E-11
  1.8650001E-02   -9.3557913E-12
  1.8685000E-02    4.9012849E-11
  1.8719999E-02    3.1577942E-11
  1.8755000E-02   -3.9012453E-11
  1.8789999E-02   -4.1512665E-11
  1.8825000E-02    3.0931108E-11
  1.8859999E-02    4.8421874E-11
  1.8895000E-02   -2.2225688E-11
  1.8929999E-02   -5.3373073E-11
  1.8965000E-02    8.6619626E-12
  1.8999999E-02    4.7909753E-11
  1.9035000E-02   -2.7174741E-13
  1.9069999E-02   -3.7127527E-11
  1.9105000E-02    8.4724578E-13
  1.9140000E-02    3.0077000E-11
  1.9175000E-02   -3.4987696E-12
  1.9210000E-02   -2.5010724E-11
  1.9245001E-02    7.9659413E-12
  1.9280000E-02    2.2393301E-11
  1.9315001E-02   -1.5815212E-11
  1.9350000E-02   -3.0721491E-11
  1.9385001E-02    1.2423378E-11
  1.9420000E-02    3.8320347E-11
  1.9455001E-02    3.1777820E-12
  1.9490000E-02   -3.2027533E-11
  1.9525001E-02   -1.6946541E-11
  1.9560000E-02    1.6053565E-11
  1.9595001E-02    2.3179576E-11
  1.9630000E-02    1.3019096E-12
  1.9664999E-02   -2.9156639E-11
  1.9700000E-02   -3.0391092E-11
  1.9734999E-02    1.8743585E-11
  1.9770000E-02    5.7801985E-11
  1.9804999E-02    1.0202965E-11
  1.9840000E-02   -6.6606373E-11
  1.9874999E-02   -4.2195480E-11
  1.9910000E-02    5.9041647E-11
  1.9944999E-02    7.1931759E-11
  1.9980000E-02   -3.7115498E-11
  2.0014999E-02   -1.0247158E-10
  2.0050000E-02   -2.1492428E-11
  2.0085000E-02    8.8278530E-11
  2.0120000E-02    7.8389774E-11
  2.0155000E-02   -2.0354871E-11
  2.0190001E-02   -7.3473609E-11
  2.0225000E-02   -3.3334974E-11
  2.0260001E-02    2.9822256E-11
  2.0295000E-02    3.2145318E-11
  2.0330001E-02   -2.6203217E-11
  2.0365000E-02   -4.9580479E-11
  2.0400001E-02    2.5130120E-11
  2.0435000E-02    9.9035814E-11
  2.0470001E-02    4.0470637E-11
  2.0505000E-02   -8.4053035E-11
  2.0540001E-02   -1.0183448E-10
  2.0575000E-02   -1.0371652E-11
  2.0609999E-02    5.4801701E-11
  2.0645000E-02    5.4610861E-11
  2.0679999E-02    3.7272171E-11
  2.0715000E-02   -2.8992407E-12
  2.0749999E-02   -6.1107792E-11
  2.0785000E-02   -4.6017037E-11
  2.0819999E-02    4.5616639E-11
  2.0855000E-02    4.9252297E-11
  2.0889999E-02   -7.0869144E-11
  2.0925000E-02   -8.2871897E-11
  2.0959999E-02    9.6999679E-11
  2.0995000E-02    1.6724083E-10
  2.1029999E-02   -4.0796706E-11
  2.1065000E-02   -1.9814882E-10
  2.1100000E-02   -4.3425163E-11
  2.1135001E-02    1.3971983E-10
  2.1170000E-02    6.0212085E-11
  2.1205001E-02   -7.0639536E-11
  2.1240000E-02   -1.4514709E-11
  2.1275001E-02    5.2523066E-11
  2.1310000E-02   -2.0710473E-11
  2.1345001E-02   -4.5349485E-11
  2.1380000E-02    5.2573477E-11
  2.1415001E-02    4.0948092E-11
  2.1450000E-02   -1.0035895E-10
  2.1485001E-02   -6.7846048E-11
  2.1520000E-02    1.4146846E-10
  2.1555001E-02    1.3058114E-10
  2.1590000E-02   -1.2959980E-10
  2.1624999E-02   -1.5174556E-10
  2.1660000E-02    1.3488995E-10
  2.1694999E-02    1.6685879E-10
  2.1730000E-02   -1.5940078E-10
  2.1764999E-02   -2.2210163E-10
  2.1800000E-02    1.2104802E-10
  2.1834999E-02    2.5121502E-10
  2.1870000E-02   -1.6851723E-11
  2.1904999E-02   -1.6355302E-10
  2.1940000E-02    1.0877752E-12
  2.1974999E-02    8.9450204E-11
  2.2010000E-02   -6.0197354E-11
  2.2045000E-02   -1.2573345E-10
  2.2080000E-02    6.3329293E-11
  2.2115000E-02    1.8309820E-10
  2.2150001E-02    1.3600572E-11
  2.2185000E-02   -1.2093050E-10
  2.2220001E-02   -1.5973512E-11
  2.2255000E-02    2.1758916E-11
  2.2290001E-02   -6.4634381E-11
  2.2325000E-02    1.9271709E-11
  2.2360001E-02    1.1896718E-10
  2.2395000E-02   -3.2593119E-11
  2.2430001E-02   -1.1855733E-10
  2.2465000E-02    6.4147208E-11
  2.2500001E-02    1.4588161E-10
  2.2535000E-02   -3.5911836E-11
  2.2569999E-02   -1.8460385E-10
  2.2605000E-02   -6.7756988E-11
  2.2639999E-02    1.8999521E-10
  2.2675000E-02    1.7744058E-10
  2.2709999E-02   -1.5228881E-10
  2.2745000E-02   -2.0480385E-10
  2.2779999E-02    1.0832904E-10
  2.2815000E-02    1.3413516E-10
  2.2849999E-02   -8.0771320E-11
  2.2885000E-02   -1.9889212E-11
  2.2919999E-02    5.1899141E-11
  2.2955000E-02   -8.5737480E-11
  2.2990000E-02   -3.1589387E-11
  2.3025000E-02    1.2596246E-10
  2.3060000E-02    3.8933554E-11
  2.3095001E-02   -7.6313116E-11
  2.3130000E-02   -7.4616639E-11
  2.3165001E-02   -7.3913176E-12
  2.3200000E-02    1.4871009E-10
  2.3235001E-02    3.9528183E-11
  2.3270000E-02   -2.9729597E-10
  2.3305001E-02   -5.8280061E-11
  2.3340000E-02    4.1612250E-10
  2.3375001E-02    8.9980266E-11
  2.3410000E-02   -3.6915637E-10
  2.3445001E-02   -9.2997672E-11
  2.3480000E-02    1.7198565E-10
  2.3514999E-02    5.5549017E-11
  2.3550000E-02    1.4952263E-11
  2.3584999E-02   -7.1666770E-11
  2.3620000E-02   -1.3124152E-10
  2.3654999E-02    7.4487305E-11
  2.3690000E-02    4.0195704E-11
  2.3724999E-02   -7.0432875E-11
  2.3760000E-02    2.6351682E-10
  2.3794999E-02    1.8663410E-10
  2.3830000E-02   -3.9762960E-10
  2.3864999E-02   -2.1264578E-10
  2.3900000E-02    2.0235803E-10
  2.3934999E-02   -1.3143923E-10
  2.3970000E-02   -1.2555491E-10
  2.4005000E-02    3.7862441E-10
  2.4040001E-02    2.0921755E-10
  2.4075000E-02   -9.7334453E-11
  2.4110001E-02   -8.9538121E-13
  2.4145000E-02   -1.8737747E-10
  2.4180001E-02   -2.3883337E-10
  2.4215000E-02    9.6702375E-11
  2.4250001E-02   -3.6232007E-11
  2.4285000E-02   -4.2101558E-11
  2.4320001E-02    4.5884990E-10
  2.4355000E-02    1.1506221E-10
  2.4390001E-02   -4.4987136E-10
  2.4425000E-02    9.1890766E-11
  2.4460001E-02    2.4404864E-10
  2.4495000E-02   -3.8682624E-10
  2.4529999E-02   -1.0221208E-10
  2.4565000E-02    3.2966344E-10
  2.4599999E-02   -8.8455125E-11
  2.4635000E-02   -3.5136952E-11
  2.4669999E-02    2.4868968E-10
  2.4705000E-02   -1.8606666E-10
  2.4739999E-02   -1.9742290E-10
  2.4775000E-02    2.1785174E-10
  2.4809999E-02    7.1674611E-11
  2.4845000E-02    1.0933331E-10
  2.4879999E-02    1.2828268E-10
  2.4915000E-02   -5.4159854E-10
  2.4950000E-02   -2.8159894E-10
  2.4985000E-02    6.6118433E-10
  2.5020000E-02    9.2990296E-11
  2.5055001E-02   -5.1598348E-10
  2.5090000E-02    3.5019868E-10
  2.5125001E-02    4.6900073E-10
  2.5160000E-02   -3.7086045E-10
  2.5195001E-02   -2.7993860E-10
  2.5230000E-02    2.4748099E-11
  2.5265001E-02   -6.8761344E-11
  2.5300000E-02    1.3430053E-10
  2.5335001E-02    4.4339161E-11
  2.5370000E-02   -9.8789907E-11
  2.5405001E-02    4.5174212E-10
  2.5440000E-02    2.3447042E-10
  2.5474999E-02   -6.0707001E-10
  2.5510000E-02   -1.0490626E-10
  2.5544999E-02    3.9570125E-10
  2.5580000E-02   -3.5670028E-10
  2.5614999E-02   -3.3203321E-10
  2.5650000E-02    4.0581499E-10
  2.5684999E-02    2.3377342E-10
  2.5720000E-02    6.5931850E-11
  2.5754999E-02    1.7225356E-10
  2.5790000E-02   -2.6841362E-10
  2.5824999E-02   -2.8391894E-10
  2.5860000E-02    1.5979433E-10
  2.5895000E-02    3.1584318E-11
  2.5930000E-02    9.3834308E-11
  2.5965000E-02    1.9809725E-10
  2.6000001E-02   -4.9115412E-10
  2.6035000E-02   -3.4277758E-10
  2.6070001E-02    6.6781625E-10
  2.6105000E-02    2.9648650E-10
  2.6140001E-02   -3.9727263E-10
  2.6175000E-02    7.5368087E-11
  2.6210001E-02    1.9655864E-10
  2.6245000E-02   -7.5217298E-11
  2.6280001E-02    1.8581991E-12
  2.6315000E-02   -4.5807078E-10
  2.6350001E-02   -4.1983306E-10
  2.6385000E-02    7.5618650E-10
  2.6419999E-02    4.5388163E-10
  2.6455000E-02   -7.9148704E-10
  2.6489999E-02   -1.4274133E-10
  2.6525000E-02    7.4817497E-10
  2.6559999E-02    2.8231700E-10
  2.6595000E-02    3.9926412E-13
  2.6629999E-02   -3.3809519E-10
  2.6665000E-02   -7.3774875E-10
  2.6699999E-02    1.8415852E-10
  2.6735000E-02    5.4221372E-10
  2.6769999E-02   -5.2358679E-10
  2.6805000E-02   -1.5021438E-10
  2.6839999E-02    7.7121975E-10
  2.6875000E-02   -2.0003756E-11
  2.6910000E-02   -2.3388361E-10
  2.6945001E-02    4.4054363E-10
  2.6980000E-02   -1.8972290E-10