 -4.8000002E-03    1.0000000E-24
 -4.7650002E-03    1.0000002E-24
 -4.7300002E-03    1.0000001E-24
 -4.6950001E-03    1.0000002E-24
 -4.6600001E-03    1.0000002E-24
 -4.6250001E-03    1.0000000E-24
 -4.5900000E-03    1.0000000E-24
 -4.5550000E-03    1.0000001E-24
 -4.5200000E-03    1.0000001E-24
 -4.4849999E-03    9.9999972E-25
 -4.4499999E-03    1.0000000E-24
 -4.4149999E-03    1.0000005E-24
 -4.3799998E-03    1.0000006E-24
 -4.3449998E-03    9.9999992E-25
 -4.3100002E-03    9.9999972E-25
 -4.2750002E-03    1.0000006E-24
 -4.2400002E-03    1.0000005E-24
 -4.2050001E-03    9.9999963E-25
 -4.1700001E-03    9.9999963E-25
 -4.1350001E-03    1.0000004E-24
 -4.1000000E-03    1.0000007E-24
 -4.0650000E-03    1.0000002E-24
 -4.0300000E-03    9.9999982E-25
 -3.9949999E-03    9.9999963E-25
 -3.9599999E-03    1.0000000E-24
 -3.9249999E-03    1.0000005E-24
 -3.8900001E-03    1.0000000E-24
 -3.8550000E-03    9.9999963E-25
 -3.8200000E-03    1.0000005E-24
 -3.7849999E-03    1.0000008E-24
 -3.7499999E-03    9.9999982E-25
 -3.7150001E-03    9.9999913E-25
 -3.6800001E-03    1.0000002E-24
 -3.6450000E-03    1.0000008E-24
 -3.6100000E-03    1.0000000E-24
 -3.5750000E-03    9.9999972E-25
 -3.5399999E-03    1.0000005E-24
 -3.5049999E-03    1.0000007E-24
 -3.4700001E-03    1.0000001E-24
 -3.4350001E-03    9.9999953E-25
 -3.4000000E-03    9.9999963E-25
 -3.3650000E-03    1.0000001E-24
 -3.3300000E-03    1.0000001E-24
 -3.2949999E-03    1.0000003E-24
 -3.2599999E-03    1.0000003E-24
 -3.2250001E-03    9.9999992E-25
 -3.1900001E-03    1.0000001E-24
 -3.1550000E-03    1.0000007E-24
 -3.1200000E-03    9.9999992E-25
 -3.0850000E-03    9.9999933E-25
 -3.0499999E-03    1.0000004E-24
 -3.0149999E-03    1.0000013E-24
 -2.9800001E-03    1.0000002E-24
 -2.9450001E-03    9.9999923E-25
 -2.9100000E-03    1.0000000E-24
 -2.8750000E-03    1.0000002E-24
 -2.8400000E-03    9.9999923E-25
 -2.8049999E-03    9.9999923E-25
 -2.7699999E-03    1.0000011E-24
 -2.7350001E-03    1.0000012E-24
 -2.7000001E-03    9.9999972E-25
 -2.6650000E-03    9.9999972E-25
 -2.6300000E-03    1.0000003E-24
 -2.5950000E-03    9.9999972E-25
 -2.5599999E-03    9.9999972E-25
 -2.5249999E-03    1.0000009E-24
 -2.4900001E-03    1.0000008E-24
 -2.4550001E-03    9.9999972E-25
 -2.4200000E-03    1.0000003E-24
 -2.3850000E-03    1.0000011E-24
 -2.3500000E-03    9.9999943E-25
 -2.3149999E-03    9.9999844E-25
 -2.2799999E-03    1.0000006E-24
 -2.2450001E-03    1.0000013E-24
 -2.2100001E-03    9.9999903E-25
 -2.1750000E-03    9.9999884E-25
 -2.1400000E-03    1.0000010E-24
 -2.1050000E-03    1.0000007E-24
 -2.0699999E-03    9.9999893E-25
 -2.0349999E-03    1.0000000E-24
 -2.0000001E-03    1.0000014E-24
 -1.9650001E-03    1.0000006E-24
 -1.9300000E-03    9.9999963E-25
 -1.8950000E-03    1.0000007E-24
 -1.8600000E-03    1.0000006E-24
 -1.8250000E-03    9.9999913E-25
 -1.7900000E-03    9.9999933E-25
 -1.7550000E-03    1.0000008E-24
 -1.7199999E-03    1.0000010E-24
 -1.6850000E-03    9.9999982E-25
 -1.6500000E-03    9.9999943E-25
 -1.6150000E-03    9.9999953E-25
 -1.5800000E-03    9.9999933E-25
 -1.5450000E-03    9.9999982E-25
 -1.5100000E-03    1.0000007E-24
 -1.4750001E-03    1.0000009E-24
 -1.4400000E-03    9.9999992E-25
 -1.4050000E-03    9.9999972E-25
 -1.3700000E-03    1.0000005E-24
 -1.3350000E-03    9.9999972E-25
 -1.3000000E-03    9.9999893E-25
 -1.2650000E-03    1.0000009E-24
 -1.2300001E-03    1.0000022E-24
 -1.1950000E-03    9.9999982E-25
 -1.1600000E-03    9.9999854E-25
 -1.1250000E-03    1.0000007E-24
 -1.0900000E-03    1.0000013E-24
 -1.0550000E-03    9.9999893E-25
 -1.0200000E-03    9.9999884E-25
 -9.8500005E-04    1.0000009E-24
 -9.5000002E-04    1.0000007E-24
 -9.1499998E-04    9.9999933E-25
 -8.8000001E-04    9.9999972E-25
 -8.4499997E-04    1.0000010E-24
 -8.1000000E-04    1.0000005E-24
 -7.7500002E-04    9.9999963E-25
 -7.3999999E-04    1.0000004E-24
 -7.0500001E-04    1.0000009E-24
 -6.6999998E-04    1.0000002E-24
 -6.3500000E-04    1.0000000E-24
 -6.0000003E-04    1.0000002E-24
 -5.6499999E-04    9.9999943E-25
 -5.3000002E-04    9.9999913E-25
 -4.9499999E-04    1.0000002E-24
 -4.6000001E-04    1.0000010E-24
 -4.2500001E-04    1.0000001E-24
 -3.9000000E-04    9.9999923E-25
 -3.5500000E-04    1.0000000E-24
 -3.1999999E-04    1.0000010E-24
 -2.8499999E-04    1.0000005E-24
 -2.5000001E-04    9.9999972E-25
 -2.1499999E-04    1.0000003E-24
 -1.8000000E-04    1.0000005E-24
 -1.4500000E-04    9.9999933E-25
 -1.1000000E-04    9.9999933E-25
 -7.5000004E-05    1.0000004E-24
 -3.9999999E-05    1.0000006E-24
 -4.9999999E-06    1.0000003E-24
  2.9999999E-05    1.0000005E-24
  6.5000000E-05    1.0000001E-24
  9.9999997E-05    9.9999933E-25
  1.3499999E-04    1.0000007E-24
  1.7000000E-04    1.0000018E-24
  2.0500000E-04    1.0000001E-24
  2.3999999E-04    9.9999854E-25
  2.7500000E-04    1.0000001E-24
  3.1000000E-04    1.0000012E-24
  3.4500001E-04    9.9999893E-25
  3.8000001E-04    9.9999844E-25
  4.1499999E-04    1.0000014E-24
  4.4999999E-04    1.0000015E-24
  4.8500000E-04    9.9999834E-25
  5.2000000E-04    9.9999913E-25
  5.5499998E-04    1.0000022E-24
  5.9000001E-04    1.0000003E-24
  6.2499999E-04    9.9999834E-25
  6.6000002E-04    1.0000013E-24
  6.9500000E-04    1.0000026E-24
  7.3000003E-04    9.9999972E-25
  7.6500000E-04    9.9999943E-25
  7.9999998E-04    1.0000007E-24
  8.3500001E-04    9.9999943E-25
  8.6999999E-04    9.9999844E-25
  9.0500002E-04    1.0000004E-24
  9.4000000E-04    1.0000008E-24
  9.7499997E-04    9.9999963E-25
  1.0100000E-03    1.0000002E-24
  1.0450000E-03    9.9999963E-25
  1.0800000E-03    9.9999943E-25
  1.1150000E-03    1.0000030E-24
  1.1500000E-03    1.0000006E-24
  1.1849999E-03    9.9999262E-25
  1.2200000E-03    1.0000040E-24
  1.2550000E-03    1.0000152E-24
  1.2900000E-03    9.9998306E-25
  1.3250000E-03    9.9997911E-25
  1.3600000E-03    1.0000488E-24
  1.3950000E-03    1.0000139E-24
  1.4299999E-03    9.9989372E-25
  1.4650000E-03    1.0000376E-24
  1.5000000E-03    1.0001859E-24
  1.5350000E-03    9.9980872E-25
  1.5700000E-03    9.9975242E-25
  1.6050000E-03    1.0005287E-24
  1.6400000E-03    1.0001697E-24
  1.6749999E-03    9.9887372E-25
  1.7100000E-03    1.0003185E-24
  1.7450000E-03    1.0019747E-24
  1.7800000E-03    9.9830752E-25
  1.8150000E-03    9.9720134E-25
  1.8500000E-03    1.0046239E-24
  1.8850000E-03    1.0027522E-24
  1.9200000E-03    9.9019556E-25
  1.9550000E-03    9.9997823E-25
  1.9900000E-03    1.0174262E-24
  2.0250001E-03    9.9147342E-25
  2.0600001E-03    9.7388458E-25
  2.0949999E-03    1.0273630E-24
  2.1299999E-03    1.0312084E-24
  2.1650000E-03    9.3861096E-25
  2.2000000E-03    9.7756649E-25
  2.2350000E-03    1.1133269E-24
  2.2700001E-03    9.8154501E-25
  2.3050001E-03    8.2154460E-25
  2.3399999E-03    1.1188609E-24
  2.3749999E-03    1.2359527E-24
  2.4100000E-03    6.8682194E-25
  2.4450000E-03    7.6321726E-25
  2.4800000E-03    1.6341590E-24
  2.5150001E-03    1.0895295E-24
  2.5500001E-03   -9.4056946E-26
  2.5849999E-03    1.3521055E-24
  2.6199999E-03    2.6519019E-24
  2.6550000E-03   -2.9324529E-25
  2.6900000E-03   -1.1647296E-24
  2.7250000E-03    3.9826664E-24
  2.7600001E-03    3.3241352E-24
  2.7950001E-03   -4.6641429E-24
  2.8299999E-03   -5.8536092E-25
  2.8649999E-03    1.0477072E-23
  2.9000000E-03    1.0496413E-25
  2.9350000E-03   -1.3288111E-23
  2.9700000E-03    7.2852346E-24
  3.0050001E-03    2.0437763E-23
  3.0400001E-03   -1.5026096E-23
  3.0749999E-03   -2.2393040E-23
  3.1099999E-03    3.2643238E-23
  3.1450000E-03    2.4311488E-23
  3.1800000E-03   -5.3349742E-23
  3.2150000E-03   -1.3545635E-23
  3.2500001E-03    8.5353810E-23
  3.2850001E-03   -8.8465299E-24
  3.3199999E-03   -1.1878164E-22
  3.3549999E-03    6.0467160E-23
  3.3900000E-03    1.5613947E-22
  3.4250000E-03   -1.4563220E-22
  3.4600000E-03   -1.7828070E-22
  3.4950001E-03    2.8683550E-22
  3.5300001E-03    1.7392950E-22
  3.5649999E-03   -4.9124386E-22
  3.5999999E-03   -1.0495754E-22
  3.6350000E-03    7.7973218E-22
  3.6700000E-03   -6.4172251E-23
  3.7050000E-03   -1.1498660E-21
  3.7400001E-03    4.0008622E-22
  3.7750001E-03    1.6001565E-21
  3.8099999E-03   -9.6823036E-22
  3.8449999E-03   -2.0868741E-21
  3.8800000E-03    1.8611737E-21
  3.9149998E-03    2.5407222E-21
  3.9499998E-03   -3.1576335E-21
  3.9849998E-03   -2.8147813E-21
  4.0199999E-03    4.9380841E-21
  4.0549999E-03    2.6913583E-21
  4.0899999E-03   -7.2267854E-21
  4.1250000E-03   -1.8198254E-21
  4.1600000E-03    9.9864288E-21
  4.1950000E-03   -2.8565918E-22
  4.2300001E-03   -1.3036512E-20
  4.2650001E-03    4.3142405E-21
  4.3000001E-03    1.6024262E-20
  4.3350002E-03   -1.1159654E-20
  4.3700002E-03   -1.8323585E-20
  4.4049998E-03    2.1974266E-20
  4.4399998E-03    1.8996996E-20
  4.4749998E-03   -3.8133850E-20
  4.5099999E-03   -1.6703670E-20
  4.5449999E-03    6.1218842E-20
  4.5799999E-03    9.6970238E-21
  4.6150000E-03   -9.2850966E-20
  4.6500000E-03    4.1986614E-21
  4.6850001E-03    1.3446645E-19
  4.7200001E-03   -2.7488608E-20
  4.7550001E-03   -1.8683668E-19
  4.7900002E-03    6.2906013E-20
  4.8250002E-03    2.4938981E-19
  4.8600002E-03   -1.1319470E-19
  4.8949998E-03   -3.1912703E-19
  4.9299998E-03    1.8095384E-19
  4.9649999E-03    3.8919473E-19
  4.9999999E-03   -2.6851461E-19
  5.0349999E-03   -4.4696001E-19
  5.0700000E-03    3.7813797E-19
  5.1050000E-03    4.7177921E-19
  5.1400000E-03   -5.1262120E-19
  5.1750001E-03   -4.3253489E-19
  5.2100001E-03    6.7669087E-19
  5.2450001E-03    2.8548195E-19
  5.2800002E-03   -8.7927748E-19
  5.3150002E-03    2.7043909E-20
  5.3500002E-03    1.1368971E-18
  5.3849998E-03   -5.7592745E-19
  5.4199998E-03   -1.4778351E-18
  5.4549999E-03    1.4414042E-18
  5.4899999E-03    1.9466089E-18
  5.5249999E-03   -2.7043545E-18
  5.5600000E-03   -2.6072175E-18
  5.5950000E-03    4.4313149E-18
  5.6300000E-03    3.5429709E-18
  5.6650001E-03   -6.6518804E-18
  5.7000001E-03   -4.8492541E-18
  5.7350001E-03    9.3283871E-18
  5.7700002E-03    6.6145721E-18
  5.8050002E-03   -1.2319360E-17
  5.8400002E-03   -8.8839603E-18
  5.8749998E-03    1.5341386E-17
  5.9099998E-03    1.1598729E-17
  5.9449999E-03   -1.7937962E-17
  5.9799999E-03   -1.4507368E-17
  6.0149999E-03    1.9469385E-17
  6.0500000E-03    1.7046022E-17
  6.0850000E-03   -1.9143122E-17
  6.1200000E-03   -1.8193068E-17
  6.1550001E-03    1.6110031E-17
  6.1900001E-03    1.6313367E-17
  6.2250001E-03   -9.6548422E-18
  6.2600002E-03   -9.0227902E-18
  6.2950002E-03   -4.9095217E-19
  6.3299998E-03   -6.8751133E-18
  6.3649998E-03    1.3694291E-17
  6.3999998E-03    3.5303192E-17
  6.4349999E-03   -2.7824794E-17
  6.4699999E-03   -8.0569529E-17
  6.5049999E-03    3.8559471E-17
  6.5400000E-03    1.4664059E-16
  6.5750000E-03   -3.8695446E-17
  6.6100000E-03   -2.3588883E-16
  6.6450001E-03    1.7677344E-17
  6.6800001E-03    3.4720240E-16
  6.7150001E-03    3.8325554E-17
  6.7500002E-03   -4.7343832E-16
  6.7850002E-03   -1.4531374E-16
  6.8199998E-03    5.9839315E-16
  6.8549998E-03    3.1873125E-16
  6.8899998E-03   -6.9378611E-16
  6.9249999E-03   -5.6850739E-16
  6.9599999E-03    7.1720170E-16
  6.9949999E-03    8.9143717E-16
  7.0300000E-03   -6.1247613E-16
  7.0650000E-03   -1.2609576E-15
  7.1000000E-03    3.1452027E-16
  7.1350001E-03    1.6152788E-15
  7.1700001E-03    2.3913776E-16
  7.2050001E-03   -1.8461672E-15
  7.2400002E-03   -1.0880381E-15
  7.2750002E-03    1.7923950E-15
  7.3099998E-03    2.2187274E-15
  7.3449998E-03   -1.2436796E-15
  7.3799998E-03   -3.5262572E-15
  7.4149999E-03   -3.7642895E-17
  7.4499999E-03    4.7722654E-15
  7.4850000E-03    2.2698005E-15
  7.5200000E-03   -5.5497315E-15
  7.5550000E-03   -5.5742832E-15
  7.5900001E-03    5.2703402E-15
  7.6250001E-03    9.8682286E-15
  7.6600001E-03   -3.1956516E-15
  7.6950002E-03   -1.4736527E-14
  7.7300002E-03   -1.4644074E-15
  7.7650002E-03    1.9307989E-14
  7.7999998E-03    9.3660211E-15
  7.8349998E-03   -2.2177003E-14
  7.8699999E-03   -2.0752546E-14
  7.9049999E-03    2.1428182E-14
  7.9399999E-03    3.5101398E-14
  7.9750000E-03   -1.4829861E-14
  8.0100000E-03   -5.0753381E-14
  8.0450000E-03    2.5486332E-16
  8.0800001E-03    6.4626195E-14
  8.1150001E-03    2.3645651E-14
  8.1500001E-03   -7.2155606E-14
  8.1850002E-03   -5.6551359E-14
  8.2200002E-03    6.7630587E-14
  8.2550002E-03    9.5492414E-14
  8.2900003E-03   -4.5071999E-14
  8.3250003E-03   -1.3401387E-13
  8.3600003E-03   -2.6897640E-16
  8.3950004E-03    1.6181759E-13
  8.4300004E-03    6.9858500E-14
  8.4650004E-03   -1.6526919E-13
  8.5000005E-03   -1.5954272E-13
  8.5349996E-03    1.2912374E-13
  8.5699996E-03    2.5743315E-13
  8.6049996E-03   -3.9669263E-14
  8.6399997E-03   -3.4274222E-13
  8.6749997E-03   -1.1081695E-13
  8.7099997E-03    3.8642283E-13
  8.7449998E-03    3.1883974E-13
  8.7799998E-03   -3.5440959E-13
  8.8149998E-03   -5.6474026E-13
  8.8499999E-03    2.1393686E-13
  8.8849999E-03    8.0956867E-13
  8.9199999E-03    5.7228595E-14
  8.9550000E-03   -9.9558469E-13
  8.9900000E-03   -4.5972281E-13
  9.0250000E-03    1.0520796E-12
  9.0600001E-03    9.6184790E-13
  9.0950001E-03   -9.0752362E-13
  9.1300001E-03   -1.4922960E-12
  9.1650002E-03    5.0771410E-13
  9.2000002E-03    1.9399716E-12
  9.2350002E-03    1.6227906E-13
  9.2700003E-03   -2.1642211E-12
  9.3050003E-03   -1.0566680E-12
  9.3400003E-03    2.0172887E-12
  9.3750004E-03    2.0540603E-12
  9.4100004E-03   -1.3781529E-12
  9.4450004E-03   -2.9559038E-12
  9.4799995E-03    1.9336498E-13
  9.5149996E-03    3.5040902E-12
  9.5499996E-03    1.4831783E-12
  9.5849996E-03   -3.4205371E-12
  9.6199997E-03   -3.4623105E-12
  9.6549997E-03    2.4667369E-12
  9.6899997E-03    5.4151206E-12
  9.7249998E-03   -5.1524529E-13
  9.7599998E-03   -6.9013740E-12
  9.7949998E-03   -2.3807388E-12
  9.8299999E-03    7.4350526E-12
  9.8649999E-03    5.9376796E-12
  9.8999999E-03   -6.5831403E-12
  9.9350000E-03   -9.6306088E-12
  9.9700000E-03    4.0843379E-12
  1.0005000E-02    1.2735721E-11
  1.0040000E-02    3.4758424E-14
  1.0075000E-02   -1.4433155E-11
  1.0110000E-02   -5.3746859E-12
  1.0145000E-02    1.3963871E-11
  1.0180000E-02    1.1139257E-11
  1.0215000E-02   -1.0819327E-11
  1.0250000E-02   -1.6196787E-11
  1.0285000E-02    4.9282336E-12
  1.0320000E-02    1.9236479E-11
  1.0355000E-02    3.2051516E-12
  1.0390000E-02   -1.9009370E-11
  1.0425000E-02   -1.2457533E-11
  1.0460000E-02    1.4619391E-11
  1.0495000E-02    2.1173462E-11
  1.0530000E-02   -5.8083976E-12
  1.0565000E-02   -2.7394862E-11
  1.0600000E-02   -6.8335346E-12
  1.0635000E-02    2.9213156E-11
  1.0670000E-02    2.1798846E-11
  1.0705000E-02   -2.5189137E-11
  1.0740000E-02   -3.6779527E-11
  1.0775000E-02    1.4759236E-11
  1.0810000E-02    4.8980091E-11
  1.0845000E-02    1.4634650E-12
  1.0880000E-02   -5.5593974E-11
  1.0915000E-02   -2.1576010E-11
  1.0950000E-02    5.4370997E-11
  1.0985000E-02    4.2515009E-11
  1.1020000E-02   -4.4174692E-11
  1.1055000E-02   -6.0441312E-11
  1.1090000E-02    2.5417541E-11
  1.1125000E-02    7.1345777E-11
  1.1160000E-02   -2.7140424E-13
  1.1195000E-02   -7.1798283E-11
  1.1230000E-02   -2.7425362E-11
  1.1265000E-02    5.9727057E-11
  1.1300000E-02    5.2608341E-11
  1.1335000E-02   -3.5082479E-11
  1.1370000E-02   -6.9763757E-11
  1.1405000E-02    2.2308734E-13
  1.1440000E-02    7.3956549E-11
  1.1475000E-02    4.0123162E-11
  1.1510000E-02   -6.1942729E-11
  1.1545000E-02   -7.9409958E-11
  1.1580000E-02    3.3136674E-11
  1.1615000E-02    1.1032686E-10
  1.1650000E-02    9.8268685E-12
  1.1685000E-02   -1.2621389E-10
  1.1720000E-02   -6.1158745E-11
  1.1755000E-02    1.2255397E-10
  1.1790000E-02    1.1270323E-10
  1.1825000E-02   -9.8179180E-11
  1.1860000E-02   -1.5534302E-10
  1.1895000E-02    5.5869580E-11
  1.1930000E-02    1.8074267E-10
  1.1965000E-02   -2.1654792E-12
  1.2000000E-02   -1.8306355E-10
  1.2035000E-02   -5.3609204E-11
  1.2070000E-02    1.6028132E-10
  1.2105000E-02    1.0093487E-10
  1.2140000E-02   -1.1482224E-10
  1.2175000E-02   -1.2997953E-10
  1.2210000E-02    5.3410373E-11
  1.2245000E-02    1.3344525E-10
  1.2280000E-02    1.3833364E-11
  1.2315000E-02   -1.0812017E-10
  1.2350000E-02   -7.4955063E-11
  1.2385000E-02    5.5904430E-11
  1.2420000E-02    1.1829282E-10
  1.2455000E-02    1.5985078E-11
  1.2490000E-02   -1.3491171E-10
  1.2525000E-02   -9.5917059E-11
  1.2560000E-02    1.2086886E-10
  1.2595000E-02    1.6995277E-10
  1.2630000E-02   -7.8667385E-11
  1.2665000E-02   -2.2493155E-10
  1.2700000E-02    1.7227214E-11
  1.2735000E-02    2.5185953E-10
  1.2770000E-02    5.0054041E-11
  1.2805000E-02   -2.4847105E-10
  1.2840000E-02   -1.0888858E-10
  1.2875000E-02    2.1979875E-10
  1.2910000E-02    1.4819872E-10
  1.2945000E-02   -1.7624802E-10
  1.2980000E-02   -1.6310682E-10
  1.3015000E-02    1.2977165E-10
  1.3050000E-02    1.5547377E-10
  1.3085000E-02   -8.9745981E-11
  1.3120000E-02   -1.3168440E-10
  1.3155000E-02    6.0513691E-11
  1.3190000E-02    9.8854640E-11
  1.3225000E-02   -4.1764571E-11
  1.3260000E-02   -6.1598525E-11
  1.3295000E-02    3.1285419E-11
  1.3330000E-02    2.1146368E-11
  1.3365000E-02   -2.8251453E-11
  1.3400000E-02    2.2733069E-11
  1.3435000E-02    3.4806064E-11
  1.3470000E-02   -6.8260779E-11
  1.3505000E-02   -5.4400165E-11
  1.3540000E-02    1.0942165E-10
  1.3575000E-02    8.7679163E-11
  1.3610000E-02   -1.3747535E-10
  1.3645000E-02   -1.2925658E-10
  1.3680000E-02    1.4563827E-10
  1.3715000E-02    1.6829955E-10
  1.3750000E-02   -1.3368417E-10
  1.3785000E-02   -1.9286792E-10
  1.3820000E-02    1.0960354E-10
  1.3855000E-02    1.9605530E-10
  1.3890000E-02   -8.6668429E-11
  1.3925000E-02   -1.8077381E-10
  1.3960000E-02    7.5845920E-11
  1.3995000E-02    1.5851320E-10
  1.4030000E-02   -7.8293899E-11
  1.4065000E-02   -1.4091402E-10
  1.4100000E-02    8.5283273E-11
  1.4135000E-02    1.3102815E-10
  1.4170000E-02   -8.6023751E-11
  1.4205000E-02   -1.2161842E-10
  1.4240000E-02    7.6636537E-11
  1.4275000E-02    1.0050390E-10
  1.4310000E-02   -6.5522247E-11
  1.4345000E-02   -6.0835011E-11
  1.4380000E-02    7.1463363E-11
  1.4415000E-02    1.2798558E-11
  1.4450000E-02   -1.0961177E-10
  1.4485000E-02    1.5468486E-11
  1.4520000E-02    1.7294068E-10
  1.4555000E-02    4.2750161E-12
  1.4590000E-02   -2.2880360E-10
  1.4625000E-02   -7.7947357E-11
  1.4660000E-02    2.3498536E-10
  1.4695000E-02    1.7972042E-10
  1.4730000E-02   -1.6229801E-10
  1.4765000E-02   -2.5702024E-10
  1.4800000E-02    1.7041177E-11
  1.4835000E-02    2.5269914E-10
  1.4870000E-02    1.4751246E-10
  1.4905000E-02   -1.4438610E-10
  1.4940000E-02   -2.5415775E-10
  1.4975000E-02   -3.1284114E-11
  1.5010000E-02    2.5012292E-10
  1.5045000E-02    1.9795318E-10
  1.5080000E-02   -1.3657439E-10
  1.5115000E-02   -2.7936772E-10
  1.5150000E-02   -3.2648398E-11
  1.5185000E-02    2.3391447E-10
  1.5220000E-02    1.6980901E-10
  1.5255000E-02   -8.5305180E-11
  1.5290000E-02   -2.0210270E-10
  1.5325000E-02   -8.2015283E-11
  1.5360000E-02    1.2852046E-10
  1.5395000E-02    1.8772113E-10
  1.5430000E-02   -1.3099992E-11
  1.5465000E-02   -2.1186412E-10
  1.5500000E-02   -7.4806238E-11
  1.5535000E-02    1.8657301E-10
  1.5570000E-02    9.4843827E-11
  1.5605000E-02   -1.7358617E-10
  1.5640000E-02   -5.4696230E-11
  1.5675001E-02    2.3681609E-10
  1.5710000E-02    2.9916285E-11
  1.5745001E-02   -3.6974343E-10
  1.5780000E-02   -1.0272846E-10
  1.5814999E-02    4.7358845E-10
  1.5850000E-02    2.5865154E-10
  1.5884999E-02   -4.5846771E-10
  1.5920000E-02   -3.9867487E-10
  1.5954999E-02    3.2291503E-10
  1.5990000E-02    4.3025572E-10
  1.6024999E-02   -1.2393993E-10
  1.6060000E-02   -2.8597288E-10
  1.6094999E-02   -2.0761252E-11
  1.6130000E-02   -2.7846853E-11
  1.6164999E-02   -3.7435138E-11
  1.6200000E-02    3.6277933E-10
  1.6235000E-02    3.3496073E-10
  1.6270000E-02   -5.1327698E-10
  1.6305000E-02   -7.1239398E-10
  1.6340001E-02    4.2942547E-10
  1.6375000E-02    9.9726993E-10
  1.6410001E-02   -1.7965514E-10
  1.6445000E-02   -1.0730642E-09
  1.6480001E-02   -9.6697504E-11
  1.6515000E-02    9.1167485E-10
  1.6550001E-02    2.3647795E-10
  1.6585000E-02   -5.8737082E-10
  1.6620001E-02   -8.2313767E-11
  1.6655000E-02    3.7122466E-10
  1.6690001E-02   -2.2982402E-10
  1.6725000E-02   -3.5829625E-10
  1.6759999E-02    5.3363564E-10
  1.6795000E-02    5.3486704E-10
  1.6829999E-02   -6.5288597E-10
  1.6865000E-02   -7.0209605E-10
  1.6899999E-02    6.5387346E-10
  1.6935000E-02    8.3617063E-10
  1.6969999E-02   -4.6849918E-10
  1.7005000E-02   -6.7763284E-10
  1.7039999E-02    4.4060716E-10
  1.7075000E-02    4.5515527E-10
  1.7109999E-02   -5.2684990E-10
  1.7145000E-02   -1.6306329E-10
  1.7180000E-02    9.1626118E-10
  1.7215000E-02    2.3624927E-10
  1.7250000E-02   -1.0882832E-09
  1.7285001E-02   -2.6189156E-10
  1.7320000E-02    1.3505835E-09
  1.7355001E-02    6.3574540E-10
  1.7390000E-02   -1.0680046E-09
  1.7425001E-02   -5.5426719E-10
  1.7460000E-02    1.0069646E-09
  1.7495001E-02    6.6655520E-10
  1.7530000E-02   -4.6742243E-10
  1.7565001E-02    1.7168208E-11
  1.7600000E-02    7.6222972E-10
  1.7635001E-02   -6.6995777E-11
  1.7670000E-02   -5.3157517E-10
  1.7704999E-02    8.4813562E-10
  1.7740000E-02    1.4184537E-09
  1.7774999E-02   -2.7493158E-10
  1.7810000E-02   -1.0100424E-09
  1.7844999E-02    8.6516050E-10
  1.7880000E-02    1.8891255E-09
  1.7914999E-02    2.1218360E-10
  1.7950000E-02   -7.9236917E-10
  1.7984999E-02    7.3608686E-10
  1.8020000E-02    1.7153957E-09
  1.8054999E-02    5.6259564E-10
  1.8090000E-02    7.9967533E-11
  1.8124999E-02    1.3353809E-09
  1.8160000E-02    1.5988654E-09
  1.8195000E-02    3.3631734E-10
  1.8230001E-02    4.1017248E-10
  1.8265000E-02    1.9988591E-09
  1.8300001E-02    2.0925173E-09
  1.8335000E-02    7.0189987E-10
  1.8370001E-02    8.7134505E-10
  1.8405000E-02    2.4991313E-09
  1.8440001E-02    2.6911173E-09
  1.8475000E-02    1.6091879E-09
  1.8510001E-02    1.7400796E-09
  1.8545000E-02    2.7233609E-09
  1.8580001E-02    2.6352973E-09
  1.8615000E-02    2.2925621E-09
  1.8650001E-02    3.1827614E-09
  1.8685000E-02    3.9306332E-09
  1.8719999E-02    3.2448084E-09
  1.8755000E-02    2.9883023E-09
  1.8789999E-02    4.4692268E-09
  1.8825000E-02    5.4748126E-09
  1.8859999E-02    4.4694746E-09
  1.8895000E-02    3.7370804E-09
  1.8929999E-02    5.0955991E-09
  1.8965000E-02    6.5556174E-09
  1.8999999E-02    6.2798020E-09
  1.9035000E-02    5.8026823E-09
  1.9069999E-02    6.6345072E-09
  1.9105000E-02    7.6516695E-09
  1.9140000E-02    7.9013587E-09
  1.9175000E-02    8.1993541E-09
  1.9210000E-02    8.8268406E-09
  1.9245001E-02    9.0891659E-09
  1.9280000E-02    9.2557277E-09
  1.9315001E-02    1.0057248E-08
  1.9350000E-02    1.1026720E-08
  1.9385001E-02    1.1467765E-08
  1.9420000E-02    1.1778091E-08
  1.9455001E-02    1.2453792E-08
  1.9490000E-02    1.3211716E-08
  1.9525001E-02    1.3853804E-08
  1.9560000E-02    1.4642927E-08
  1.9595001E-02    1.5410533E-08
  1.9630000E-02    1.5670606E-08
  1.9664999E-02    1.5887093E-08
  1.9700000E-02    1.6927196E-08
  1.9734999E-02    1.8192273E-08
  1.9770000E-02    1.8594577E-08
  1.9804999E-02    1.8870367E-08
  1.9840000E-02    2.0014605E-08
  1.9874999E-02    2.1020062E-08
  1.9910000E-02    2.1240634E-08
  1.9944999E-02    2.2003460E-08
  1.9980000E-02    2.3395749E-08
  2.0014999E-02    2.3692955E-08
  2.0050000E-02    2.3225287E-08
  2.0085000E-02    2.4020599E-08
  2.0120000E-02    2.5742207E-08
  2.0155000E-02    2.6422374E-08
  2.0190001E-02    2.6205687E-08
  2.0225000E-02    2.6782411E-08
  2.0260001E-02    2.8090051E-08
  2.0295000E-02    2.8546539E-08
  2.0330001E-02    2.8315148E-08
  2.0365000E-02    2.9020653E-08
  2.0400001E-02    2.9900622E-08
  2.0435000E-02    2.9056606E-08
  2.0470001E-02    2.8296929E-08
  2.0505000E-02    2.9980569E-08
  2.0540001E-02    3.1362895E-08
  2.0575000E-02    2.9927708E-08
  2.0609999E-02    2.8937389E-08
  2.0645000E-02    3.0510375E-08
  2.0679999E-02    3.1232908E-08
  2.0715000E-02    2.9454974E-08
  2.0749999E-02    2.8173918E-08
  2.0785000E-02    2.8713613E-08
  2.0819999E-02    2.8731536E-08
  2.0855000E-02    2.6954726E-08
  2.0889999E-02    2.5489255E-08
  2.0925000E-02    2.6012421E-08
  2.0959999E-02    2.6165848E-08
  2.0995000E-02    2.3946880E-08
  2.1029999E-02    2.2304286E-08
  2.1065000E-02    2.2616973E-08
  2.1100000E-02    2.0903595E-08
  2.1135001E-02    1.7198062E-08
  2.1170000E-02    1.6409512E-08
  2.1205001E-02    1.6894797E-08
  2.1240000E-02    1.3548910E-08
  2.1275001E-02    9.2769303E-09
  2.1310000E-02    8.9035312E-09
  2.1345001E-02    9.5084642E-09
  2.1380000E-02    6.7320900E-09
  2.1415001E-02    2.0883271E-09
  2.1450000E-02   -5.6651667E-10
  2.1485001E-02   -1.1183393E-09
  2.1520000E-02   -3.4537768E-09
  2.1555001E-02   -8.3444389E-09
  2.1590000E-02   -1.1177574E-08
  2.1624999E-02   -1.1894731E-08
  2.1660000E-02   -1.5677024E-08
  2.1694999E-02   -2.0452916E-08
  2.1730000E-02   -2.1107802E-08
  2.1764999E-02   -2.2132784E-08
  2.1800000E-02   -2.7749445E-08
  2.1834999E-02   -3.2234553E-08
  2.1870000E-02   -3.2992226E-08
  2.1904999E-02   -3.5390705E-08
  2.1940000E-02   -4.0508922E-08
  2.1974999E-02   -4.4148550E-08
  2.2010000E-02   -4.5407436E-08
  2.2045000E-02   -4.7400192E-08
  2.2080000E-02   -5.2161830E-08
  2.2115000E-02   -5.6303893E-08
  2.2150001E-02   -5.5890265E-08
  2.2185000E-02   -5.6050347E-08
  2.2220001E-02   -6.2314029E-08
  2.2255000E-02   -6.7537080E-08
  2.2290001E-02   -6.6073362E-08
  2.2325000E-02   -6.5980700E-08
  2.2360001E-02   -7.1249005E-08
  2.2395000E-02   -7.4435349E-08
  2.2430001E-02   -7.3669042E-08
  2.2465000E-02   -7.4308055E-08
  2.2500001E-02   -7.6682603E-08
  2.2535000E-02   -7.7555811E-08
  2.2569999E-02   -7.6919868E-08
  2.2605000E-02   -7.7437534E-08
  2.2639999E-02   -7.9917832E-08
  2.2675000E-02   -8.0447229E-08
  2.2709999E-02   -7.7350883E-08
  2.2745000E-02   -7.6584698E-08
  2.2779999E-02   -7.9470020E-08
  2.2815000E-02   -7.8305810E-08
  2.2849999E-02   -7.3068684E-08
  2.2885000E-02   -7.1772327E-08
  2.2919999E-02   -7.3251854E-08
  2.2955000E-02   -7.0752520E-08
  2.2990000E-02   -6.5704725E-08
  2.3025000E-02   -6.3309145E-08
  2.3060000E-02   -6.3066331E-08
  2.3095001E-02   -6.0426885E-08
  2.3130000E-02   -5.4634153E-08
  2.3165001E-02   -5.0635428E-08
  2.3200000E-02   -4.9190771E-08
  2.3235001E-02   -4.4542475E-08
  2.3270000E-02   -3.7709935E-08
  2.3305001E-02   -3.4661280E-08
  2.3340000E-02   -3.2115768E-08
  2.3375001E-02   -2.5395362E-08
  2.3410000E-02   -1.8993216E-08
  2.3445001E-02   -1.5734141E-08
  2.3480000E-02   -1.2231391E-08
  2.3514999E-02   -6.4962031E-09
  2.3550000E-02    1.0359394E-09
  2.3584999E-02    7.3521034E-09
  2.3620000E-02    1.0417909E-08
  2.3654999E-02    1.5497257E-08
  2.3690000E-02    2.4069770E-08
  2.3724999E-02    2.8741368E-08
  2.3760000E-02    3.1228407E-08
  2.3794999E-02    3.8545696E-08
  2.3830000E-02    4.5182258E-08
  2.3864999E-02    4.7424674E-08
  2.3900000E-02    5.2253895E-08
  2.3934999E-02    5.9211793E-08
  2.3970000E-02    6.3868661E-08
  2.4005000E-02    6.8815140E-08
  2.4040001E-02    7.3130131E-08
  2.4075000E-02    7.5445847E-08
  2.4110001E-02    8.0557861E-08
  2.4145000E-02    8.5413951E-08
  2.4180001E-02    8.5431175E-08
  2.4215000E-02    8.8106319E-08
  2.4250001E-02    9.3915858E-08
  2.4285000E-02    9.4412975E-08
  2.4320001E-02    9.4189957E-08
  2.4355000E-02    9.8438200E-08
  2.4390001E-02    1.0068882E-07
  2.4425000E-02    1.0095359E-07
  2.4460001E-02    1.0228431E-07
  2.4495000E-02    1.0061974E-07
  2.4529999E-02    9.8903534E-08
  2.4565000E-02    1.0104618E-07
  2.4599999E-02    9.9672782E-08
  2.4635000E-02    9.4983463E-08
  2.4669999E-02    9.4509218E-08
  2.4705000E-02    9.3638924E-08
  2.4739999E-02    8.9186315E-08
  2.4775000E-02    8.7624400E-08
  2.4809999E-02    8.6945768E-08
  2.4845000E-02    8.2118454E-08
  2.4879999E-02    7.6735546E-08
  2.4915000E-02    7.2189764E-08
  2.4950000E-02    6.7531907E-08
  2.4985000E-02    6.4049154E-08
  2.5020000E-02    5.8447174E-08
  2.5055001E-02    5.0269534E-08
  2.5090000E-02    4.5946141E-08
  2.5125001E-02    4.3102624E-08
  2.5160000E-02    3.5683783E-08
  2.5195001E-02    2.8558951E-08
  2.5230000E-02    2.4822723E-08
  2.5265001E-02    1.9067894E-08
  2.5300000E-02    1.0480875E-08
  2.5335001E-02    2.9216369E-09
  2.5370000E-02   -2.3494693E-09
  2.5405001E-02   -7.1697497E-09
  2.5440000E-02   -1.4976948E-08
  2.5474999E-02   -2.4019160E-08
  2.5510000E-02   -2.8854796E-08
  2.5544999E-02   -3.2822580E-08
  2.5580000E-02   -4.0750606E-08
  2.5614999E-02   -4.7196011E-08
  2.5650000E-02   -5.0149779E-08
  2.5684999E-02   -5.6023847E-08
  2.5720000E-02   -6.4389013E-08
  2.5754999E-02   -6.9873650E-08
  2.5790000E-02   -7.3120084E-08
  2.5824999E-02   -7.7558511E-08
  2.5860000E-02   -8.4110198E-08
  2.5895000E-02   -8.9733525E-08
  2.5930000E-02   -9.1409198E-08
  2.5965000E-02   -9.3446005E-08
  2.6000001E-02   -9.9129835E-08
  2.6035000E-02   -1.0234744E-07
  2.6070001E-02   -1.0214860E-07
  2.6105000E-02   -1.0583771E-07
  2.6140001E-02   -1.1155301E-07
  2.6175000E-02   -1.1236257E-07
  2.6210001E-02   -1.1092929E-07
  2.6245000E-02   -1.1234891E-07
  2.6280001E-02   -1.1531155E-07
  2.6315000E-02   -1.1625550E-07
  2.6350001E-02   -1.1444659E-07
  2.6385000E-02   -1.1356328E-07
  2.6419999E-02   -1.1539417E-07
  2.6455000E-02   -1.1505998E-07
  2.6489999E-02   -1.1167085E-07
  2.6525000E-02   -1.1111135E-07
  2.6559999E-02   -1.1220872E-07
  2.6595000E-02   -1.0898574E-07
  2.6629999E-02   -1.0389751E-07
  2.6665000E-02   -1.0217545E-07
  2.6699999E-02   -1.0202922E-07
  2.6735000E-02   -9.9593393E-08
  2.6769999E-02   -9.5357422E-08
  2.6805000E-02   -9.2021814E-08
  2.6839999E-02   -8.9430870E-08
  2.6875000E-02   -8.5711051E-08
  2.6910000E-02   -8.2060851E-08
  2.6945001E-02   -7.9314873E-08
  2.6980000E-02   -7.4843527E-08