 -4.8000002E-03    1.0000000E-24
 -4.7650002E-03    1.0000002E-24
 -4.7300002E-03    1.0000001E-24
 -4.6950001E-03    1.0000000E-24
 -4.6600001E-03    1.0000003E-24
 -4.6250001E-03    1.0000002E-24
 -4.5900000E-03    9.9999992E-25
 -4.5550000E-03    1.0000002E-24
 -4.5200000E-03    1.0000000E-24
 -4.4849999E-03    9.9999992E-25
 -4.4499999E-03    1.0000002E-24
 -4.4149999E-03    1.0000003E-24
 -4.3799998E-03    9.9999953E-25
 -4.3449998E-03    9.9999972E-25
 -4.3100002E-03    1.0000007E-24
 -4.2750002E-03    1.0000002E-24
 -4.2400002E-03    9.9999982E-25
 -4.2050001E-03    1.0000006E-24
 -4.1700001E-03    1.0000006E-24
 -4.1350001E-03    9.9999943E-25
 -4.1000000E-03    9.9999943E-25
 -4.0650000E-03    1.0000004E-24
 -4.0300000E-03    1.0000001E-24
 -3.9949999E-03    9.9999963E-25
 -3.9599999E-03    1.0000005E-24
 -3.9249999E-03    1.0000007E-24
 -3.8900001E-03    9.9999953E-25
 -3.8550000E-03    9.9999963E-25
 -3.8200000E-03    1.0000005E-24
 -3.7849999E-03    1.0000002E-24
 -3.7499999E-03    9.9999972E-25
 -3.7150001E-03    1.0000005E-24
 -3.6800001E-03    1.0000007E-24
 -3.6450000E-03    9.9999972E-25
 -3.6100000E-03    9.9999953E-25
 -3.5750000E-03    9.9999992E-25
 -3.5399999E-03    9.9999992E-25
 -3.5049999E-03    1.0000000E-24
 -3.4700001E-03    1.0000006E-24
 -3.4350001E-03    1.0000005E-24
 -3.4000000E-03    1.0000002E-24
 -3.3650000E-03    9.9999992E-25
 -3.3300000E-03    9.9999992E-25
 -3.2949999E-03    9.9999972E-25
 -3.2599999E-03    9.9999992E-25
 -3.2250001E-03    1.0000004E-24
 -3.1900001E-03    1.0000002E-24
 -3.1550000E-03    1.0000000E-24
 -3.1200000E-03    1.0000002E-24
 -3.0850000E-03    1.0000004E-24
 -3.0499999E-03    9.9999982E-25
 -3.0149999E-03    9.9999992E-25
 -2.9800001E-03    1.0000005E-24
 -2.9450001E-03    1.0000002E-24
 -2.9100000E-03    9.9999992E-25
 -2.8750000E-03    1.0000001E-24
 -2.8400000E-03    1.0000002E-24
 -2.8049999E-03    1.0000000E-24
 -2.7699999E-03    1.0000002E-24
 -2.7350001E-03    1.0000005E-24
 -2.7000001E-03    1.0000002E-24
 -2.6650000E-03    9.9999972E-25
 -2.6300000E-03    9.9999992E-25
 -2.5950000E-03    1.0000002E-24
 -2.5599999E-03    1.0000003E-24
 -2.5249999E-03    9.9999982E-25
 -2.4900001E-03    9.9999982E-25
 -2.4550001E-03    1.0000003E-24
 -2.4200000E-03    1.0000008E-24
 -2.3850000E-03    1.0000005E-24
 -2.3500000E-03    1.0000000E-24
 -2.3149999E-03    9.9999963E-25
 -2.2799999E-03    9.9999893E-25
 -2.2450001E-03    9.9999903E-25
 -2.2100001E-03    1.0000005E-24
 -2.1750000E-03    1.0000013E-24
 -2.1400000E-03    1.0000002E-24
 -2.1050000E-03    1.0000000E-24
 -2.0699999E-03    1.0000009E-24
 -2.0349999E-03    1.0000004E-24
 -2.0000001E-03    9.9999913E-25
 -1.9650001E-03    9.9999992E-25
 -1.9300000E-03    1.0000009E-24
 -1.8950000E-03    1.0000004E-24
 -1.8600000E-03    9.9999943E-25
 -1.8250000E-03    9.9999963E-25
 -1.7900000E-03    1.0000005E-24
 -1.7550000E-03    1.0000005E-24
 -1.7199999E-03    9.9999992E-25
 -1.6850000E-03    1.0000007E-24
 -1.6500000E-03    1.0000008E-24
 -1.6150000E-03    9.9999913E-25
 -1.5800000E-03    9.9999854E-25
 -1.5450000E-03    9.9999963E-25
 -1.5100000E-03    1.0000005E-24
 -1.4750001E-03    1.0000006E-24
 -1.4400000E-03    1.0000000E-24
 -1.4050000E-03    1.0000001E-24
 -1.3700000E-03    1.0000006E-24
 -1.3350000E-03    1.0000003E-24
 -1.3000000E-03    9.9999982E-25
 -1.2650000E-03    9.9999972E-25
 -1.2300001E-03    1.0000001E-24
 -1.1950000E-03    1.0000002E-24
 -1.1600000E-03    9.9999943E-25
 -1.1250000E-03    9.9999933E-25
 -1.0900000E-03    1.0000008E-24
 -1.0550000E-03    1.0000012E-24
 -1.0200000E-03    9.9999982E-25
 -9.8500005E-04    9.9999943E-25
 -9.5000002E-04    1.0000003E-24
 -9.1499998E-04    1.0000002E-24
 -8.8000001E-04    9.9999953E-25
 -8.4499997E-04    9.9999972E-25
 -8.1000000E-04    1.0000002E-24
 -7.7500002E-04    1.0000003E-24
 -7.3999999E-04    1.0000002E-24
 -7.0500001E-04    9.9999982E-25
 -6.6999998E-04    9.9999982E-25
 -6.3500000E-04    1.0000005E-24
 -6.0000003E-04    1.0000006E-24
 -5.6499999E-04    9.9999953E-25
 -5.3000002E-04    9.9999963E-25
 -4.9499999E-04    1.0000009E-24
 -4.6000001E-04    1.0000007E-24
 -4.2500001E-04    9.9999923E-25
 -3.9000000E-04    9.9999972E-25
 -3.5500000E-04    1.0000011E-24
 -3.1999999E-04    1.0000000E-24
 -2.8499999E-04    9.9999913E-25
 -2.5000001E-04    1.0000003E-24
 -2.1499999E-04    1.0000011E-24
 -1.8000000E-04    1.0000003E-24
 -1.4500000E-04    9.9999903E-25
 -1.1000000E-04    9.9999933E-25
 -7.5000004E-05    1.0000005E-24
 -3.9999999E-05    1.0000004E-24
 -4.9999999E-06    9.9999972E-25
  2.9999999E-05    1.0000005E-24
  6.5000000E-05    1.0000005E-24
  9.9999997E-05    9.9999953E-25
  1.3499999E-04    9.9999972E-25
  1.7000000E-04    9.9999953E-25
  2.0500000E-04    9.9999933E-25
  2.3999999E-04    1.0000007E-24
  2.7500000E-04    1.0000008E-24
  3.1000000E-04    9.9999953E-25
  3.4500001E-04    1.0000007E-24
  3.8000001E-04    1.0000006E-24
  4.1499999E-04    9.9999933E-25
  4.4999999E-04    1.0000000E-24
  4.8500000E-04    1.0000002E-24
  5.2000000E-04    9.9999923E-25
  5.5499998E-04    1.0000006E-24
  5.9000001E-04    1.0000019E-24
  6.2499999E-04    9.9999992E-25
  6.6000002E-04    9.9999884E-25
  6.9500000E-04    9.9999963E-25
  7.3000003E-04    1.0000004E-24
  7.6500000E-04    1.0000003E-24
  7.9999998E-04    9.9999963E-25
  8.3500001E-04    9.9999953E-25
  8.6999999E-04    1.0000010E-24
  9.0500002E-04    1.0000009E-24
  9.4000000E-04    9.9999874E-25
  9.7499997E-04    9.9999933E-25
  1.0100000E-03    1.0000013E-24
  1.0450000E-03    1.0000010E-24
  1.0800000E-03    1.0000001E-24
  1.1150000E-03    1.0000010E-24
  1.1500000E-03    1.0000007E-24
  1.1849999E-03    9.9999913E-25
  1.2200000E-03    9.9999943E-25
  1.2550000E-03    1.0000004E-24
  1.2900000E-03    9.9999923E-25
  1.3250000E-03    9.9999953E-25
  1.3600000E-03    1.0000012E-24
  1.3950000E-03    1.0000002E-24
  1.4299999E-03    9.9999874E-25
  1.4650000E-03    1.0000006E-24
  1.5000000E-03    1.0000003E-24
  1.5350000E-03    9.9999805E-25
  1.5700000E-03    9.9999992E-25
  1.6050000E-03    1.0000023E-24
  1.6400000E-03    9.9999972E-25
  1.6749999E-03    9.9999923E-25
  1.7100000E-03    1.0000024E-24
  1.7450000E-03    1.0000012E-24
  1.7800000E-03    9.9999815E-25
  1.8150000E-03    9.9999953E-25
  1.8500000E-03    1.0000006E-24
  1.8850000E-03    9.9999874E-25
  1.9200000E-03    9.9999992E-25
  1.9550000E-03    1.0000025E-24
  1.9900000E-03    1.0000004E-24
  2.0250001E-03    9.9999834E-25
  2.0600001E-03    1.0000002E-24
  2.0949999E-03    1.0000017E-24
  2.1299999E-03    9.9999963E-25
  2.1650000E-03    9.9999913E-25
  2.2000000E-03    1.0000018E-24
  2.2350000E-03    1.0000014E-24
  2.2700001E-03    9.9999795E-25
  2.3050001E-03    9.9999913E-25
  2.3399999E-03    1.0000021E-24
  2.3749999E-03    9.9999972E-25
  2.4100000E-03    9.9999834E-25
  2.4450000E-03    1.0000013E-24
  2.4800000E-03    1.0000010E-24
  2.5150001E-03    9.9999893E-25
  2.5500001E-03    1.0000000E-24
  2.5849999E-03    1.0000004E-24
  2.6199999E-03    9.9999953E-25
  2.6550000E-03    9.9999982E-25
  2.6900000E-03    9.9999844E-25
  2.7250000E-03    9.9999785E-25
  2.7600001E-03    1.0000015E-24
  2.7950001E-03    1.0000026E-24
  2.8299999E-03    9.9999963E-25
  2.8649999E-03    1.0000007E-24
  2.9000000E-03    1.0000030E-24
  2.9350000E-03    9.9999913E-25
  2.9700000E-03    9.9999667E-25
  3.0050001E-03    9.9999982E-25
  3.0400001E-03    1.0000029E-24
  3.0749999E-03    1.0000007E-24
  3.1099999E-03    9.9999834E-25
  3.1450000E-03    1.0000024E-24
  3.1800000E-03    1.0000029E-24
  3.2150000E-03    9.9999834E-25
  3.2500001E-03    9.9999608E-25
  3.2850001E-03    1.0000013E-24
  3.3199999E-03    1.0000069E-24
  3.3549999E-03    1.0000181E-24
  3.3900000E-03    1.0000019E-24
  3.4250000E-03    9.9998089E-25
  3.4600000E-03    1.0000098E-24
  3.4950001E-03    1.0000458E-24
  3.5300001E-03    9.9998197E-25
  3.5649999E-03    9.9992912E-25
  3.5999999E-03    1.0000355E-24
  3.6350000E-03    1.0000782E-24
  3.6700000E-03    9.9993790E-25
  3.7050000E-03    9.9983682E-25
  3.7400001E-03    9.9994667E-25
  3.7750001E-03    1.0002117E-24
  3.8099999E-03    1.0000498E-24
  3.8449999E-03    9.9965282E-25
  3.8800000E-03    9.9967945E-25
  3.9149998E-03    1.0002277E-24
  3.9499998E-03    1.0005762E-24
  3.9849998E-03    9.9964316E-25
  4.0199999E-03    9.9886938E-25
  4.0549999E-03    1.0005403E-24
  4.0899999E-03    1.0019958E-24
  4.1250000E-03    9.9960874E-25
  4.1600000E-03    9.9668168E-25
  4.1950000E-03    1.0000987E-24
  4.2300001E-03    1.0053082E-24
  4.2650001E-03    1.0008724E-24
  4.3000001E-03    9.9270661E-25
  4.3350002E-03    9.9733574E-25
  4.3700002E-03    1.0102985E-24
  4.4049998E-03    1.0082596E-24
  4.4399998E-03    9.8863194E-25
  4.4749998E-03    9.8829332E-25
  4.5099999E-03    1.0121446E-24
  4.5449999E-03    1.0204134E-24
  4.5799999E-03    9.9342753E-25
  4.6150000E-03    9.5978813E-25
  4.6500000E-03    9.9106410E-25
  4.6850001E-03    1.0612807E-24
  4.7200001E-03    1.0227542E-24
  4.7550001E-03    9.0363652E-25
  4.7900002E-03    9.1999513E-25
  4.8250002E-03    1.1009801E-24
  4.8600002E-03    1.1417428E-24
  4.8949998E-03    8.9911487E-25
  4.9299998E-03    7.5568230E-25
  4.9649999E-03    1.0607526E-24
  4.9999999E-03    1.3807360E-24
  5.0349999E-03    1.0598013E-24
  5.0700000E-03    4.6575758E-25
  5.1050000E-03    6.9709119E-25
  5.1400000E-03    1.6522489E-24
  5.1750001E-03    1.7087889E-24
  5.2100001E-03    2.6323322E-25
  5.2450001E-03   -4.0614928E-25
  5.2800002E-03    1.5498362E-24
  5.3150002E-03    3.3531688E-24
  5.3500002E-03    1.0609803E-24
  5.3849998E-03   -2.5067231E-24
  5.4199998E-03   -3.6156813E-25
  5.4549999E-03    5.7015549E-24
  5.4899999E-03    4.6540880E-24
  5.5249999E-03   -4.6865974E-24
  5.5600000E-03   -6.4632009E-24
  5.5950000E-03    6.7292967E-24
  5.6300000E-03    1.4703815E-23
  5.6650001E-03   -2.5019195E-24
  5.7000001E-03   -2.0731954E-23
  5.7350001E-03   -1.5072187E-24
  5.7700002E-03    3.2350555E-23
  5.8050002E-03    1.5282527E-23
  5.8400002E-03   -3.9081356E-23
  5.8749998E-03   -3.3274743E-23
  5.9099998E-03    4.6252253E-23
  5.9449999E-03    6.8404597E-23
  5.9799999E-03   -4.1234870E-23
  6.0149999E-03   -1.1390120E-22
  6.0500000E-03    1.8871202E-23
  6.0850000E-03    1.7395872E-22
  6.1200000E-03    3.7247649E-23
  6.1550001E-03   -2.3937584E-22
  6.1900001E-03   -1.3975257E-22
  6.2250001E-03    2.9574471E-22
  6.2600002E-03    3.0921343E-22
  6.2950002E-03   -3.1954001E-22
  6.3299998E-03   -5.6383612E-22
  6.3649998E-03    2.5877465E-22
  6.3999998E-03    8.9758447E-22
  6.4349999E-03   -5.3379144E-23
  6.4699999E-03   -1.2956874E-21
  6.5049999E-03   -3.8031363E-22
  6.5400000E-03    1.7023819E-21
  6.5750000E-03    1.1606649E-21
  6.6100000E-03   -1.9716557E-21
  6.6450001E-03   -2.3497404E-21
  6.6800001E-03    1.9069700E-21
  6.7150001E-03    4.0134682E-21
  6.7500002E-03   -1.1564844E-21
  6.7850002E-03   -6.0427822E-21
  6.8199998E-03   -6.5078611E-22
  6.8549998E-03    8.1584929E-21
  6.8899998E-03    3.9692932E-21
  6.9249999E-03   -9.8937256E-21
  6.9599999E-03   -9.3846355E-21
  6.9949999E-03    1.0235615E-20
  7.0300000E-03    1.6958039E-20
  7.0650000E-03   -7.8559742E-21
  7.1000000E-03   -2.6703408E-20
  7.1350001E-03    8.0556103E-22
  7.1700001E-03    3.7499164E-20
  7.2050001E-03    1.3045684E-20
  7.2400002E-03   -4.6815272E-20
  7.2750002E-03   -3.5451184E-20
  7.3099998E-03    5.1054373E-20
  7.3449998E-03    6.7963330E-20
  7.3799998E-03   -4.4185384E-20
  7.4149999E-03   -1.0981106E-19
  7.4499999E-03    1.8271547E-20
  7.4850000E-03    1.5658906E-19
  7.5200000E-03    3.5340885E-20
  7.5550000E-03   -1.9910532E-19
  7.5900001E-03   -1.2459563E-19
  7.6250001E-03    2.2184418E-19
  7.6600001E-03    2.5410973E-19
  7.6950002E-03   -2.0156636E-19
  7.7300002E-03   -4.2032997E-19
  7.7650002E-03    1.0822133E-19
  7.7999998E-03    6.0621844E-19
  7.8349998E-03    8.9835692E-20
  7.8699999E-03   -7.7704147E-19
  7.9049999E-03   -4.2253963E-19
  7.9399999E-03    8.7523598E-19
  7.9750000E-03    9.0431727E-19
  8.0100000E-03   -8.1228231E-19
  8.0450000E-03   -1.5165404E-18
  8.0800001E-03    4.8678276E-19
  8.1150001E-03    2.2013127E-18
  8.1500001E-03    2.1512906E-19
  8.1850002E-03   -2.8233688E-18
  8.2200002E-03   -1.3756786E-18
  8.2550002E-03    3.1817101E-18
  8.2900003E-03    3.0303809E-18
  8.3250003E-03   -2.9929711E-18
  8.3600003E-03   -5.0952585E-18
  8.3950004E-03    1.9169557E-18
  8.4300004E-03    7.3386628E-18
  8.4650004E-03    3.4800827E-19
  8.5000005E-03   -9.3685723E-18
  8.5349996E-03   -4.0996626E-18
  8.5699996E-03    1.0475637E-17
  8.6049996E-03    9.3381222E-18
  8.6399997E-03   -9.8401282E-18
  8.6749997E-03   -1.5770319E-17
  8.7099997E-03    6.4737322E-18
  8.7449998E-03    2.2646185E-17
  8.7799998E-03    5.4006157E-19
  8.8149998E-03   -2.8601881E-17
  8.8499999E-03   -1.1799896E-17
  8.8849999E-03    3.1660199E-17
  8.9199999E-03    2.7147555E-17
  8.9550000E-03   -2.9541607E-17
  8.9900000E-03   -4.5663877E-17
  9.0250000E-03    1.9511310E-17
  9.0600001E-03    6.4811699E-17
  9.0950001E-03    4.9645111E-19
  9.1300001E-03   -8.0928876E-17
  9.1650002E-03   -3.1849484E-17
  9.2000002E-03    8.8593909E-17
  9.2350002E-03    7.3739512E-17
  9.2700003E-03   -8.1622709E-17
  9.3050003E-03   -1.2253615E-16
  9.3400003E-03    5.3944044E-17
  9.3750004E-03    1.7158246E-16
  9.4100004E-03   -7.3829478E-19
  9.4450004E-03   -2.1105581E-16
  9.4799995E-03   -8.0365474E-17
  9.5149996E-03    2.2729687E-16
  9.5499996E-03    1.8559535E-16
  9.5849996E-03   -2.0640038E-16
  9.6199997E-03   -3.0513459E-16
  9.6549997E-03    1.3433932E-16
  9.6899997E-03    4.2241750E-16
  9.7249998E-03    2.0819571E-19
  9.7599998E-03   -5.1000320E-16
  9.7949998E-03   -1.9627048E-16
  9.8299999E-03    5.3936093E-16
  9.8649999E-03    4.4407124E-16
  9.8999999E-03   -4.7752764E-16
  9.9350000E-03   -7.1651936E-16
  9.9700000E-03    2.9757898E-16
  1.0005000E-02    9.7184950E-16
  1.0040000E-02    1.9269407E-17
  1.0075000E-02   -1.1510410E-15
  1.0110000E-02   -4.6656597E-16
  1.0145000E-02    1.1863978E-15
  1.0180000E-02    1.0112755E-15
  1.0215000E-02   -1.0134640E-15
  1.0250000E-02   -1.5872249E-15
  1.0285000E-02    5.8053012E-16
  1.0320000E-02    2.0937314E-15
  1.0355000E-02    1.2760313E-16
  1.0390000E-02   -2.4068799E-15
  1.0425000E-02   -1.0845887E-15
  1.0460000E-02    2.3882537E-15
  1.0495000E-02    2.2000188E-15
  1.0530000E-02   -1.9144634E-15
  1.0565000E-02   -3.3091951E-15
  1.0600000E-02    9.1654566E-16
  1.0635000E-02    4.2003381E-15
  1.0670000E-02    6.0766472E-16
  1.0705000E-02   -4.6085962E-15
  1.0740000E-02   -2.5377190E-15
  1.0775000E-02    4.2962388E-15
  1.0810000E-02    4.6465813E-15
  1.0845000E-02   -3.0517699E-15
  1.0880000E-02   -6.5604908E-15
  1.0915000E-02    8.1889568E-16
  1.0950000E-02    7.8353792E-15
  1.0985000E-02    2.2834647E-15
  1.1020000E-02   -8.0073201E-15
  1.1055000E-02   -5.9451299E-15
  1.1090000E-02    6.6321155E-15
  1.1125000E-02    9.5567839E-15
  1.1160000E-02   -3.5017858E-15
  1.1195000E-02   -1.2361149E-14
  1.1230000E-02   -1.2947975E-15
  1.1265000E-02    1.3521499E-14
  1.1300000E-02    7.3221458E-15
  1.1335000E-02   -1.2212001E-14
  1.1370000E-02   -1.3663394E-14
  1.1405000E-02    7.9249800E-15
  1.1440000E-02    1.9063283E-14
  1.1475000E-02   -6.0014926E-16
  1.1510000E-02   -2.2025796E-14
  1.1545000E-02   -9.1729882E-15
  1.1580000E-02    2.1055579E-14
  1.1615000E-02    2.0016349E-14
  1.1650000E-02   -1.5093719E-14
  1.1685000E-02   -2.9902828E-14
  1.1720000E-02    3.7332876E-15
  1.1755000E-02    3.6246505E-14
  1.1790000E-02    1.2305903E-14
  1.1825000E-02   -3.6382030E-14
  1.1860000E-02   -3.1017144E-14
  1.1895000E-02    2.8129852E-14
  1.1930000E-02    4.9138174E-14
  1.1965000E-02   -1.0373445E-14
  1.2000000E-02   -6.2380277E-14
  1.2035000E-02   -1.6228670E-14
  1.2070000E-02    6.6132958E-14
  1.2105000E-02    4.9030126E-14
  1.2140000E-02   -5.6029129E-14
  1.2175000E-02   -8.2829095E-14
  1.2210000E-02    2.9560362E-14
  1.2245000E-02    1.1082305E-13
  1.2280000E-02    1.3472768E-14
  1.2315000E-02   -1.2481166E-13
  1.2350000E-02   -6.9536607E-14
  1.2385000E-02    1.1708799E-13
  1.2420000E-02    1.3144943E-13
  1.2455000E-02   -8.1702630E-14
  1.2490000E-02   -1.8825088E-13
  1.2525000E-02    1.6620447E-14
  1.2560000E-02    2.2651983E-13
  1.2595000E-02    7.4735391E-14
  1.2630000E-02   -2.3243565E-13
  1.2665000E-02   -1.8267145E-13
  1.2700000E-02    1.9421643E-13
  1.2735000E-02    2.9117244E-13
  1.2770000E-02   -1.0512525E-13
  1.2805000E-02   -3.7899927E-13
  1.2840000E-02   -3.3384818E-14
  1.2875000E-02    4.2268682E-13
  1.2910000E-02    2.0985888E-13
  1.2945000E-02   -4.0043912E-13
  1.2980000E-02   -4.0213376E-13
  1.3015000E-02    2.9694414E-13
  1.3050000E-02    5.7885223E-13
  1.3085000E-02   -1.0789453E-13
  1.3120000E-02   -7.0266883E-13
  1.3155000E-02   -1.5572580E-13
  1.3190000E-02    7.3637434E-13
  1.3225000E-02    4.6615966E-13
  1.3260000E-02   -6.4978052E-13
  1.3295000E-02   -7.7974091E-13
  1.3330000E-02    4.2733330E-13
  1.3365000E-02    1.0411663E-12
  1.3400000E-02   -7.4887294E-14
  1.3435000E-02   -1.1914401E-12
  1.3470000E-02   -3.7654463E-13
  1.3505000E-02    1.1780454E-12
  1.3540000E-02    8.7061592E-13
  1.3575000E-02   -9.6653794E-13
  1.3610000E-02   -1.3310221E-12
  1.3645000E-02    5.5057142E-13
  1.3680000E-02    1.6709607E-12
  1.3715000E-02    4.0361178E-14
  1.3750000E-02   -1.8077103E-12
  1.3785000E-02   -7.3936181E-13
  1.3820000E-02    1.6790021E-12
  1.3855000E-02    1.4475365E-12
  1.3890000E-02   -1.2585220E-12
  1.3925000E-02   -2.0464624E-12
  1.3960000E-02    5.6735188E-13
  1.3995000E-02    2.4166927E-12
  1.4030000E-02    3.2116196E-13
  1.4065000E-02   -2.4605975E-12
  1.4100000E-02   -1.2870513E-12
  1.4135000E-02    2.1239083E-12
  1.4170000E-02    2.1784193E-12
  1.4205000E-02   -1.4134247E-12
  1.4240000E-02   -2.8364613E-12
  1.4275000E-02    4.0373965E-13
  1.4310000E-02    3.1239700E-12
  1.4345000E-02    7.6723128E-13
  1.4380000E-02   -2.9548371E-12
  1.4415000E-02   -1.9165635E-12
  1.4450000E-02    2.3172725E-12
  1.4485000E-02    2.8463189E-12
  1.4520000E-02   -1.2856722E-12
  1.4555000E-02   -3.3824321E-12
  1.4590000E-02    1.3244694E-14
  1.4625000E-02    3.4099527E-12
  1.4660000E-02    1.2893449E-12
  1.4695000E-02   -2.9026235E-12
  1.4730000E-02   -2.3912053E-12
  1.4765000E-02    1.9367229E-12
  1.4800000E-02    3.0863545E-12
  1.4835000E-02   -6.8656468E-13
  1.4870000E-02   -3.2428511E-12
  1.4905000E-02   -6.0692022E-13
  1.4940000E-02    2.8375913E-12
  1.4975000E-02    1.6858949E-12
  1.5010000E-02   -1.9671569E-12
  1.5045000E-02   -2.3295740E-12
  1.5080000E-02    8.3734950E-13
  1.5115000E-02    2.4082975E-12
  1.5150000E-02    2.7231863E-13
  1.5185000E-02   -1.9294061E-12
  1.5220000E-02   -1.0765256E-12
  1.5255000E-02    1.0481029E-12
  1.5290000E-02    1.3632917E-12
  1.5325000E-02   -3.1609921E-14
  1.5360000E-02   -1.0509125E-12
  1.5395000E-02   -8.0155408E-13
  1.5430000E-02    2.1628006E-13
  1.5465000E-02    1.1512062E-12
  1.5500000E-02    8.9490584E-13
  1.5535000E-02   -8.3005895E-13
  1.5570000E-02   -1.9111162E-12
  1.5605000E-02   -1.4598584E-13
  1.5640000E-02    2.4536378E-12
  1.5675001E-02    1.5497241E-12
  1.5710000E-02   -2.2574896E-12
  1.5745001E-02   -3.0130497E-12
  1.5780000E-02    1.2281860E-12
  1.5814999E-02    4.0940129E-12
  1.5850000E-02    5.1302604E-13
  1.5884999E-02   -4.3609014E-12
  1.5920000E-02   -2.5817094E-12
  1.5954999E-02    3.5646807E-12
  1.5990000E-02    4.4109161E-12
  1.6024999E-02   -1.7894369E-12
  1.6060000E-02   -5.4816741E-12
  1.6094999E-02   -5.9999488E-13
  1.6130000E-02    5.4789207E-12
  1.6164999E-02    3.1055070E-12
  1.6200000E-02   -4.2952105E-12
  1.6235000E-02   -5.1349801E-12
  1.6270000E-02    2.1080366E-12
  1.6305000E-02    6.0994577E-12
  1.6340001E-02    5.0079255E-13
  1.6375000E-02   -5.7431681E-12
  1.6410001E-02   -2.7514649E-12
  1.6445000E-02    4.3303594E-12
  1.6480001E-02    4.0871230E-12
  1.6515000E-02   -2.4000136E-12
  1.6550001E-02   -4.2717635E-12
  1.6585000E-02    5.4176661E-13
  1.6620001E-02    3.2696070E-12
  1.6655000E-02    5.1319197E-13
  1.6690001E-02   -1.4688518E-12
  1.6725000E-02   -9.8644922E-14
  1.6759999E-02   -1.2662530E-13
  1.6795000E-02   -1.7411722E-12
  1.6829999E-02    4.7871901E-13
  1.6865000E-02    4.1862212E-12
  1.6899999E-02    8.0943629E-13
  1.6935000E-02   -6.3150383E-12
  1.6969999E-02   -3.6958301E-12
  1.7005000E-02    7.2692100E-12
  1.7039999E-02    7.9326198E-12
  1.7075000E-02   -5.9065305E-12
  1.7109999E-02   -1.2408323E-11
  1.7145000E-02    1.4774728E-12
  1.7180000E-02    1.5070105E-11
  1.7215000E-02    5.2203745E-12
  1.7250000E-02   -1.4363637E-11
  1.7285001E-02   -1.2325717E-11
  1.7320000E-02    1.0081657E-11
  1.7355001E-02    1.8279848E-11
  1.7390000E-02   -2.4479667E-12
  1.7425001E-02   -2.1539180E-11
  1.7460000E-02   -7.9538615E-12
  1.7495001E-02    2.0021349E-11
  1.7530000E-02    1.8815213E-11
  1.7565001E-02   -1.2775545E-11
  1.7600000E-02   -2.6614523E-11
  1.7635001E-02    1.5517813E-12
  1.7670000E-02    2.9320397E-11
  1.7704999E-02    1.0956186E-11
  1.7740000E-02   -2.6709466E-11
  1.7774999E-02   -2.2805291E-11
  1.7810000E-02    1.8608661E-11
  1.7844999E-02    3.1535562E-11
  1.7880000E-02   -5.6127681E-12
  1.7914999E-02   -3.3780367E-11
  1.7950000E-02   -8.7291728E-12
  1.7984999E-02    2.8555262E-11
  1.8020000E-02    2.0005006E-11
  1.8054999E-02   -1.8208039E-11
  1.8090000E-02   -2.6267913E-11
  1.8124999E-02    5.2749098E-12
  1.8160000E-02    2.7029179E-11
  1.8195000E-02    8.6500208E-12
  1.8230001E-02   -2.0926424E-11
  1.8265000E-02   -1.9993432E-11
  1.8300001E-02    8.5660116E-12
  1.8335000E-02    2.4401361E-11
  1.8370001E-02    5.5297806E-12
  1.8405000E-02   -2.1132877E-11
  1.8440001E-02   -1.6583198E-11
  1.8475000E-02    1.3096771E-11
  1.8510001E-02    2.3271116E-11
  1.8545000E-02   -2.1337719E-12
  1.8580001E-02   -2.4573071E-11
  1.8615000E-02   -1.0187721E-11
  1.8650001E-02    1.8488260E-11
  1.8685000E-02    1.9601674E-11
  1.8719999E-02   -5.5761324E-12
  1.8755000E-02   -2.0735054E-11
  1.8789999E-02   -8.4248181E-12
  1.8825000E-02    1.3118036E-11
  1.8859999E-02    1.7931222E-11
  1.8895000E-02   -2.1814107E-13
  1.8929999E-02   -2.0666786E-11
  1.8965000E-02   -1.4251266E-11
  1.8999999E-02    1.6515593E-11
  1.9035000E-02    2.7997341E-11
  1.9069999E-02   -4.3192906E-12
  1.9105000E-02   -3.6229957E-11
  1.9140000E-02   -1.4202176E-11
  1.9175000E-02    3.3673505E-11
  1.9210000E-02    3.2603281E-11
  1.9245001E-02   -1.9160380E-11
  1.9280000E-02   -4.2381123E-11
  1.9315001E-02   -1.0415472E-12
  1.9350000E-02    4.1208176E-11
  1.9385001E-02    2.0918253E-11
  1.9420000E-02   -3.0225031E-11
  1.9455001E-02   -3.6700858E-11
  1.9490000E-02    1.0515742E-11
  1.9525001E-02    4.4042152E-11
  1.9560000E-02    1.5514357E-11
  1.9595001E-02   -3.6375420E-11
  1.9630000E-02   -3.7042775E-11
  1.9664999E-02    1.7049339E-11
  1.9700000E-02    4.6275043E-11
  1.9734999E-02    3.9812611E-12
  1.9770000E-02   -4.5556517E-11
  1.9804999E-02   -2.2164805E-11
  1.9840000E-02    3.9332052E-11
  1.9874999E-02    3.9924841E-11
  1.9910000E-02   -2.2947061E-11
  1.9944999E-02   -4.9673980E-11
  1.9980000E-02   -3.1435615E-13
  2.0014999E-02    4.4082737E-11
  2.0050000E-02    1.7029564E-11
  2.0085000E-02   -3.0784271E-11
  2.0120000E-02   -2.2397414E-11
  2.0155000E-02    2.2556368E-11
  2.0190001E-02    2.8014521E-11
  2.0225000E-02   -1.4252298E-11
  2.0260001E-02   -3.5283290E-11
  2.0295000E-02   -3.5229504E-13
  2.0330001E-02    3.5666546E-11
  2.0365000E-02    1.4702309E-11
  2.0400001E-02   -2.9465399E-11
  2.0435000E-02   -2.2519027E-11
  2.0470001E-02    2.5633919E-11
  2.0505000E-02    3.1088424E-11
  2.0540001E-02   -2.0870829E-11
  2.0575000E-02   -4.1951036E-11
  2.0609999E-02    9.6983133E-12
  2.0645000E-02    4.9808033E-11
  2.0679999E-02    7.5061892E-12
  2.0715000E-02   -5.0901124E-11
  2.0749999E-02   -2.9831040E-11
  2.0785000E-02    3.9479153E-11
  2.0819999E-02    5.2079650E-11
  2.0855000E-02   -9.1910811E-12
  2.0889999E-02   -5.7398572E-11
  2.0925000E-02   -2.7995410E-11
  2.0959999E-02    4.0312583E-11
  2.0995000E-02    5.4327990E-11
  2.1029999E-02   -1.5087355E-11
  2.1065000E-02   -7.3066386E-11
  2.1100000E-02   -1.5642550E-11
  2.1135001E-02    8.8459809E-11
  2.1170000E-02    6.2025232E-11
  2.1205001E-02   -8.3417523E-11
  2.1240000E-02   -1.1340993E-10
  2.1275001E-02    4.7135081E-11
  2.1310000E-02    1.4314210E-10
  2.1345001E-02    1.6298398E-12
  2.1380000E-02   -1.4838890E-10
  2.1415001E-02   -5.0552621E-11
  2.1450000E-02    1.3226817E-10
  2.1485001E-02    9.5175867E-11
  2.1520000E-02   -8.9448428E-11
  2.1555001E-02   -1.1701533E-10
  2.1590000E-02    3.0991688E-11
  2.1624999E-02    1.0174182E-10
  2.1660000E-02    1.3045995E-11
  2.1694999E-02   -7.0149837E-11
  2.1730000E-02   -4.4371548E-11
  2.1764999E-02    2.8931321E-11
  2.1800000E-02    7.0152835E-11
  2.1834999E-02    3.6938390E-11
  2.1870000E-02   -6.4890475E-11
  2.1904999E-02   -1.1358149E-10
  2.1940000E-02    4.1703494E-12
  2.1974999E-02    1.4629369E-10
  2.2010000E-02    7.0870164E-11
  2.2045000E-02   -1.2841633E-10
  2.2080000E-02   -1.1725089E-10
  2.2115000E-02    9.8829944E-11
  2.2150001E-02    1.4518098E-10
  2.2185000E-02   -6.8613774E-11
  2.2220001E-02   -1.7287663E-10
  2.2255000E-02    1.2488977E-11
  2.2290001E-02    1.6891917E-10
  2.2325000E-02    5.2655959E-11
  2.2360001E-02   -1.1252529E-10
  2.2395000E-02   -7.7917513E-11
  2.2430001E-02    3.7379384E-11
  2.2465000E-02    4.8599191E-11
  2.2500001E-02    9.2163065E-12
  2.2535000E-02    3.2469051E-12
  2.2569999E-02   -1.8901703E-11
  2.2605000E-02   -4.9971582E-11
  2.2639999E-02    4.9673828E-12
  2.2675000E-02    8.5919605E-11
  2.2709999E-02    2.9593012E-11
  2.2745000E-02   -9.8579755E-11
  2.2779999E-02   -7.0343835E-11
  2.2815000E-02    8.4397267E-11
  2.2849999E-02    9.7180403E-11
  2.2885000E-02   -6.0806769E-11
  2.2919999E-02   -1.1387727E-10
  2.2955000E-02    3.2876955E-11
  2.2990000E-02    1.3237096E-10
  2.3025000E-02    2.7472195E-11
  2.3060000E-02   -1.0841573E-10
  2.3095001E-02   -8.8345227E-11
  2.3130000E-02    2.2260860E-11
  2.3165001E-02    7.5617929E-11
  2.3200000E-02    5.4206101E-11
  2.3235001E-02    1.3322087E-11
  2.3270000E-02   -2.9649044E-11
  2.3305001E-02   -6.1553172E-11
  2.3340000E-02   -3.5858132E-11
  2.3375001E-02    4.0899908E-11
  2.3410000E-02    6.1316972E-11
  2.3445001E-02   -2.4878363E-11
  2.3480000E-02   -7.7236509E-11
  2.3514999E-02    2.9554095E-11
  2.3550000E-02    1.4221349E-10
  2.3584999E-02    3.5799919E-11
  2.3620000E-02   -1.7145382E-10
  2.3654999E-02   -1.4560279E-10
  2.3690000E-02    1.1227695E-10
  2.3724999E-02    2.1119466E-10
  2.3760000E-02   -1.6132122E-11
  2.3794999E-02   -2.0975079E-10
  2.3830000E-02   -5.4987483E-11
  2.3864999E-02    1.8428679E-10
  2.3900000E-02    1.1685669E-10
  2.3934999E-02   -1.1375072E-10
  2.3970000E-02   -1.3250560E-10
  2.4005000E-02    2.2828853E-11
  2.4040001E-02    8.1328583E-11
  2.4075000E-02    2.5644899E-11
  2.4110001E-02   -1.9142014E-11
  2.4145000E-02   -3.5917391E-11
  2.4180001E-02   -1.4650727E-11
  2.4215000E-02    6.7677107E-11
  2.4250001E-02    9.9330801E-11
  2.4285000E-02   -3.7938479E-11
  2.4320001E-02   -1.9804698E-10
  2.4355000E-02   -1.0623193E-10
  2.4390001E-02    1.6884746E-10
  2.4425000E-02    2.1139876E-10
  2.4460001E-02   -5.1481427E-11
  2.4495000E-02   -1.5978319E-10
  2.4529999E-02    3.3236421E-11
  2.4565000E-02    8.9105820E-11
  2.4599999E-02   -1.0272540E-10
  2.4635000E-02   -1.2348644E-10
  2.4669999E-02    9.0286716E-11
  2.4705000E-02    1.6374371E-10
  2.4739999E-02    1.4491595E-11
  2.4775000E-02   -1.0375824E-10
  2.4809999E-02   -6.5113082E-11
  2.4845000E-02    1.9451806E-11
  2.4879999E-02    1.8487352E-11
  2.4915000E-02   -9.7682027E-12
  2.4950000E-02    2.3314978E-11
  2.4985000E-02   -5.2277491E-13
  2.5020000E-02   -6.5393281E-11
  2.5055001E-02    5.8528168E-11
  2.5090000E-02    1.6913723E-10
  2.5125001E-02   -7.6392830E-11
  2.5160000E-02   -2.7165328E-10
  2.5195001E-02    7.8100798E-12
  2.5230000E-02    2.6310465E-10
  2.5265001E-02    4.6449993E-11
  2.5300000E-02   -2.2405187E-10
  2.5335001E-02   -9.0059939E-11
  2.5370000E-02    2.4577473E-10
  2.5405001E-02    2.2371027E-10
  2.5440000E-02   -2.4089258E-10
  2.5474999E-02   -3.9999104E-10
  2.5510000E-02    9.8577042E-11
  2.5544999E-02    4.0019665E-10
  2.5580000E-02    5.3809440E-11
  2.5614999E-02   -2.0806354E-10
  2.5650000E-02   -7.6874333E-11
  2.5684999E-02    3.6362795E-11
  2.5720000E-02    6.4273899E-11
  2.5754999E-02    3.0972367E-11
  2.5790000E-02   -1.1636838E-10
  2.5824999E-02   -9.4983937E-11
  2.5860000E-02    1.0925381E-10
  2.5895000E-02    1.5962320E-10
  2.5930000E-02    9.8264480E-11
  2.5965000E-02   -5.7087134E-11
  2.6000001E-02   -3.1502578E-10
  2.6035000E-02   -1.5255300E-10
  2.6070001E-02    3.0313807E-10
  2.6105000E-02    1.6538577E-10
  2.6140001E-02   -2.0433875E-10
  2.6175000E-02    1.7882857E-11
  2.6210001E-02    2.3678196E-10
  2.6245000E-02   -2.6634948E-11
  2.6280001E-02   -2.1187886E-10
  2.6315000E-02   -1.6251551E-10
  2.6350001E-02    2.1142164E-11
  2.6385000E-02    2.9923578E-10
  2.6419999E-02    1.4886103E-10
  2.6455000E-02   -2.5259483E-10
  2.6489999E-02   -9.4103364E-11
  2.6525000E-02    1.2372371E-10
  2.6559999E-02   -1.0198772E-10
  2.6595000E-02    1.8800671E-11
  2.6629999E-02    2.9376604E-10
  2.6665000E-02   -4.8324247E-11
  2.6699999E-02   -2.3950514E-10
  2.6735000E-02    6.3502134E-11
  2.6769999E-02    3.9409420E-11
  2.6805000E-02   -6.1527637E-11
  2.6839999E-02    8.6079296E-11
  2.6875000E-02   -7.4380307E-11
  2.6910000E-02   -1.3971881E-10
  2.6945001E-02    2.4265429E-10
  2.6980000E-02    2.1914620E-10