 -4.8000002E-03    1.0000000E-24
 -4.7650002E-03    1.0000000E-24
 -4.7300002E-03    1.0000001E-24
 -4.6950001E-03    1.0000002E-24
 -4.6600001E-03    1.0000001E-24
 -4.6250001E-03    1.0000001E-24
 -4.5900000E-03    1.0000001E-24
 -4.5550000E-03    1.0000001E-24
 -4.5200000E-03    1.0000001E-24
 -4.4849999E-03    1.0000002E-24
 -4.4499999E-03    1.0000001E-24
 -4.4149999E-03    1.0000002E-24
 -4.3799998E-03    1.0000003E-24
 -4.3449998E-03    1.0000001E-24
 -4.3100002E-03    1.0000000E-24
 -4.2750002E-03    1.0000001E-24
 -4.2400002E-03    1.0000001E-24
 -4.2050001E-03    9.9999982E-25
 -4.1700001E-03    1.0000000E-24
 -4.1350001E-03    1.0000002E-24
 -4.1000000E-03    1.0000003E-24
 -4.0650000E-03    9.9999992E-25
 -4.0300000E-03    9.9999972E-25
 -3.9949999E-03    9.9999992E-25
 -3.9599999E-03    1.0000002E-24
 -3.9249999E-03    1.0000005E-24
 -3.8900001E-03    1.0000002E-24
 -3.8550000E-03    1.0000000E-24
 -3.8200000E-03    1.0000000E-24
 -3.7849999E-03    1.0000001E-24
 -3.7499999E-03    1.0000004E-24
 -3.7150001E-03    1.0000004E-24
 -3.6800001E-03    1.0000000E-24
 -3.6450000E-03    9.9999972E-25
 -3.6100000E-03    1.0000000E-24
 -3.5750000E-03    1.0000000E-24
 -3.5399999E-03    9.9999982E-25
 -3.5049999E-03    1.0000002E-24
 -3.4700001E-03    1.0000005E-24
 -3.4350001E-03    1.0000002E-24
 -3.4000000E-03    9.9999992E-25
 -3.3650000E-03    1.0000002E-24
 -3.3300000E-03    1.0000001E-24
 -3.2949999E-03    9.9999972E-25
 -3.2599999E-03    9.9999963E-25
 -3.2250001E-03    1.0000002E-24
 -3.1900001E-03    1.0000004E-24
 -3.1550000E-03    1.0000002E-24
 -3.1200000E-03    1.0000001E-24
 -3.0850000E-03    9.9999992E-25
 -3.0499999E-03    1.0000000E-24
 -3.0149999E-03    1.0000003E-24
 -2.9800001E-03    1.0000002E-24
 -2.9450001E-03    1.0000001E-24
 -2.9100000E-03    1.0000000E-24
 -2.8750000E-03    1.0000000E-24
 -2.8400000E-03    1.0000000E-24
 -2.8049999E-03    1.0000001E-24
 -2.7699999E-03    1.0000003E-24
 -2.7350001E-03    1.0000003E-24
 -2.7000001E-03    9.9999992E-25
 -2.6650000E-03    9.9999963E-25
 -2.6300000E-03    1.0000000E-24
 -2.5950000E-03    1.0000009E-24
 -2.5599999E-03    1.0000010E-24
 -2.5249999E-03    1.0000003E-24
 -2.4900001E-03    9.9999963E-25
 -2.4550001E-03    9.9999992E-25
 -2.4200000E-03    1.0000003E-24
 -2.3850000E-03    1.0000003E-24
 -2.3500000E-03    1.0000002E-24
 -2.3149999E-03    9.9999972E-25
 -2.2799999E-03    9.9999943E-25
 -2.2450001E-03    9.9999982E-25
 -2.2100001E-03    1.0000005E-24
 -2.1750000E-03    1.0000002E-24
 -2.1400000E-03    9.9999982E-25
 -2.1050000E-03    1.0000002E-24
 -2.0699999E-03    1.0000010E-24
 -2.0349999E-03    1.0000008E-24
 -2.0000001E-03    1.0000002E-24
 -1.9650001E-03    1.0000000E-24
 -1.9300000E-03    9.9999992E-25
 -1.8950000E-03    9.9999953E-25
 -1.8600000E-03    9.9999982E-25
 -1.8250000E-03    1.0000004E-24
 -1.7900000E-03    1.0000005E-24
 -1.7550000E-03    9.9999992E-25
 -1.7199999E-03    9.9999972E-25
 -1.6850000E-03    1.0000000E-24
 -1.6500000E-03    1.0000006E-24
 -1.6150000E-03    1.0000003E-24
 -1.5800000E-03    9.9999953E-25
 -1.5450000E-03    1.0000000E-24
 -1.5100000E-03    1.0000007E-24
 -1.4750001E-03    1.0000005E-24
 -1.4400000E-03    9.9999982E-25
 -1.4050000E-03    9.9999953E-25
 -1.3700000E-03    9.9999982E-25
 -1.3350000E-03    1.0000003E-24
 -1.3000000E-03    1.0000002E-24
 -1.2650000E-03    9.9999982E-25
 -1.2300001E-03    9.9999992E-25
 -1.1950000E-03    1.0000006E-24
 -1.1600000E-03    1.0000008E-24
 -1.1250000E-03    1.0000001E-24
 -1.0900000E-03    9.9999933E-25
 -1.0550000E-03    9.9999963E-25
 -1.0200000E-03    1.0000005E-24
 -9.8500005E-04    1.0000005E-24
 -9.5000002E-04    9.9999992E-25
 -9.1499998E-04    1.0000004E-24
 -8.8000001E-04    1.0000009E-24
 -8.4499997E-04    1.0000003E-24
 -8.1000000E-04    9.9999953E-25
 -7.7500002E-04    9.9999972E-25
 -7.3999999E-04    1.0000003E-24
 -7.0500001E-04    9.9999992E-25
 -6.6999998E-04    9.9999953E-25
 -6.3500000E-04    1.0000004E-24
 -6.0000003E-04    1.0000011E-24
 -5.6499999E-04    1.0000004E-24
 -5.3000002E-04    9.9999903E-25
 -4.9499999E-04    9.9999923E-25
 -4.6000001E-04    1.0000002E-24
 -4.2500001E-04    1.0000008E-24
 -3.9000000E-04    1.0000004E-24
 -3.5500000E-04    9.9999982E-25
 -3.1999999E-04    9.9999972E-25
 -2.8499999E-04    1.0000003E-24
 -2.5000001E-04    1.0000009E-24
 -2.1499999E-04    1.0000003E-24
 -1.8000000E-04    1.0000000E-24
 -1.4500000E-04    1.0000003E-24
 -1.1000000E-04    1.0000002E-24
 -7.5000004E-05    9.9999982E-25
 -3.9999999E-05    9.9999972E-25
 -4.9999999E-06    1.0000001E-24
  2.9999999E-05    1.0000008E-24
  6.5000000E-05    1.0000009E-24
  9.9999997E-05    1.0000002E-24
  1.3499999E-04    9.9999943E-25
  1.7000000E-04    9.9999972E-25
  2.0500000E-04    1.0000005E-24
  2.3999999E-04    1.0000005E-24
  2.7500000E-04    9.9999963E-25
  3.1000000E-04    9.9999884E-25
  3.4500001E-04    9.9999943E-25
  3.8000001E-04    1.0000008E-24
  4.1499999E-04    1.0000010E-24
  4.4999999E-04    1.0000001E-24
  4.8500000E-04    9.9999953E-25
  5.2000000E-04    9.9999943E-25
  5.5499998E-04    9.9999992E-25
  5.9000001E-04    1.0000009E-24
  6.2499999E-04    1.0000006E-24
  6.6000002E-04    9.9999953E-25
  6.9500000E-04    9.9999943E-25
  7.3000003E-04    1.0000005E-24
  7.6500000E-04    1.0000010E-24
  7.9999998E-04    1.0000007E-24
  8.3500001E-04    9.9999982E-25
  8.6999999E-04    9.9999913E-25
  9.0500002E-04    9.9999963E-25
  9.4000000E-04    1.0000005E-24
  9.7499997E-04    1.0000010E-24
  1.0100000E-03    1.0000008E-24
  1.0450000E-03    1.0000001E-24
  1.0800000E-03    9.9999884E-25
  1.1150000E-03    9.9999854E-25
  1.1500000E-03    9.9999992E-25
  1.1849999E-03    1.0000017E-24
  1.2200000E-03    1.0000014E-24
  1.2550000E-03    9.9999953E-25
  1.2900000E-03    9.9999844E-25
  1.3250000E-03    9.9999933E-25
  1.3600000E-03    1.0000009E-24
  1.3950000E-03    1.0000014E-24
  1.4299999E-03    1.0000006E-24
  1.4650000E-03    9.9999933E-25
  1.5000000E-03    9.9999893E-25
  1.5350000E-03    9.9999972E-25
  1.5700000E-03    1.0000004E-24
  1.6050000E-03    1.0000001E-24
  1.6400000E-03    1.0000005E-24
  1.6749999E-03    1.0000014E-24
  1.7100000E-03    1.0000008E-24
  1.7450000E-03    9.9999913E-25
  1.7800000E-03    9.9999884E-25
  1.8150000E-03    1.0000000E-24
  1.8500000E-03    1.0000009E-24
  1.8850000E-03    1.0000003E-24
  1.9200000E-03    9.9999923E-25
  1.9550000E-03    9.9999972E-25
  1.9900000E-03    1.0000017E-24
  2.0250001E-03    1.0000024E-24
  2.0600001E-03    1.0000008E-24
  2.0949999E-03    9.9999903E-25
  2.1299999E-03    9.9999854E-25
  2.1650000E-03    9.9999923E-25
  2.2000000E-03    1.0000003E-24
  2.2350000E-03    1.0000010E-24
  2.2700001E-03    1.0000012E-24
  2.3050001E-03    1.0000008E-24
  2.3399999E-03    9.9999963E-25
  2.3749999E-03    9.9999854E-25
  2.4100000E-03    9.9999854E-25
  2.4450000E-03    1.0000001E-24
  2.4800000E-03    1.0000015E-24
  2.5150001E-03    1.0000016E-24
  2.5500001E-03    1.0000004E-24
  2.5849999E-03    9.9999933E-25
  2.6199999E-03    9.9999933E-25
  2.6550000E-03    1.0000002E-24
  2.6900000E-03    1.0000004E-24
  2.7250000E-03    9.9999982E-25
  2.7600001E-03    9.9999963E-25
  2.7950001E-03    1.0000003E-24
  2.8299999E-03    9.9999982E-25
  2.8649999E-03    9.9999844E-25
  2.9000000E-03    1.0000013E-24
  2.9350000E-03    1.0000055E-24
  2.9700000E-03    1.0000005E-24
  3.0050001E-03    9.9999095E-25
  3.0400001E-03    9.9999627E-25
  3.0749999E-03    1.0000142E-24
  3.1099999E-03    1.0000107E-24
  3.1450000E-03    9.9997990E-25
  3.1800000E-03    9.9997852E-25
  3.2150000E-03    1.0000270E-24
  3.2500001E-03    1.0000413E-24
  3.2850001E-03    9.9996294E-25
  3.3199999E-03    9.9991867E-25
  3.3549999E-03    1.0000462E-24
  3.3900000E-03    1.0001527E-24
  3.4250000E-03    9.9996620E-25
  3.4600000E-03    9.9974275E-25
  3.4950001E-03    9.9998020E-25
  3.5300001E-03    1.0004190E-24
  3.5649999E-03    1.0001321E-24
  3.5999999E-03    9.9931105E-25
  3.6350000E-03    9.9960539E-25
  3.6700000E-03    1.0011051E-24
  3.7050000E-03    1.0010426E-24
  3.7400001E-03    9.9849645E-25
  3.7750001E-03    9.9786556E-25
  3.8099999E-03    1.0018865E-24
  3.8449999E-03    1.0039637E-24
  3.8800000E-03    9.9773412E-25
  3.9149998E-03    9.9275009E-25
  3.9499998E-03    1.0018315E-24
  3.9849998E-03    1.0125615E-24
  4.0199999E-03    1.0006534E-24
  4.0549999E-03    9.8034131E-25
  4.0899999E-03    9.9357711E-25
  4.1250000E-03    1.0298255E-24
  4.1600000E-03    1.0193729E-24
  4.1950000E-03    9.5869477E-25
  4.2300001E-03    9.5708520E-25
  4.2650001E-03    1.0530138E-24
  4.3000001E-03    1.0844201E-24
  4.3350002E-03    9.4325213E-25
  4.3700002E-03    8.5192008E-25
  4.4049998E-03    1.0478487E-24
  4.4399998E-03    1.2512527E-24
  4.4749998E-03    1.0047392E-24
  4.5099999E-03    6.0994760E-25
  4.5449999E-03    8.7215416E-25
  4.5799999E-03    1.5659904E-24
  4.6150000E-03    1.3726528E-24
  4.6500000E-03    2.4833502E-25
  4.6850001E-03    2.0196108E-25
  4.7200001E-03    1.9130924E-24
  4.7550001E-03    2.5211273E-24
  4.7900002E-03    9.6353542E-26
  4.8250002E-03   -1.6075364E-24
  4.8600002E-03    1.5425247E-24
  4.8949998E-03    5.1441170E-24
  4.9299998E-03    1.5288854E-24
  4.9649999E-03   -5.0739742E-24
  4.9999999E-03   -1.7670875E-24
  5.0349999E-03    9.1738402E-24
  5.0700000E-03    7.7954730E-24
  5.1050000E-03   -8.8996708E-24
  5.1400000E-03   -1.2362645E-23
  5.1750001E-03    1.1269216E-23
  5.2100001E-03    2.4298476E-23
  5.2450001E-03   -6.3542079E-24
  5.2800002E-03   -3.5921842E-23
  5.3150002E-03   -8.0053758E-25
  5.3500002E-03    5.4607975E-23
  5.3849998E-03    2.2146464E-23
  5.4199998E-03   -7.0070797E-23
  5.4549999E-03   -5.4397059E-23
  5.4899999E-03    8.5509777E-23
  5.5249999E-03    1.1090802E-22
  5.5600000E-03   -8.3744256E-23
  5.5950000E-03   -1.8825209E-22
  5.6300000E-03    5.7318248E-23
  5.6650001E-03    2.9402795E-22
  5.7000001E-03    2.3140185E-23
  5.7350001E-03   -4.1280816E-22
  5.7700002E-03   -1.7783252E-22
  5.8050002E-03    5.3088284E-22
  5.8400002E-03    4.4755621E-22
  5.8749998E-03   -5.9736890E-22
  5.9099998E-03   -8.5399855E-22
  5.9449999E-03    5.4555828E-22
  5.9799999E-03    1.4194867E-21
  6.0149999E-03   -2.5756162E-22
  6.0500000E-03   -2.1140420E-21
  6.0850000E-03   -4.1066834E-22
  6.1200000E-03    2.8565921E-21
  6.1550001E-03    1.6472538E-21
  6.1900001E-03   -3.4369181E-21
  6.2250001E-03   -3.6120667E-21
  6.2600002E-03    3.5252782E-21
  6.2950002E-03    6.4371082E-21
  6.3299998E-03   -2.5721985E-21
  6.3649998E-03   -1.0062365E-20
  6.3999998E-03   -1.3988188E-22
  6.4349999E-03    1.4169289E-20
  6.4699999E-03    5.5581921E-21
  6.5049999E-03   -1.7859178E-20
  6.5400000E-03   -1.4575506E-20
  6.5750000E-03    1.9627707E-20
  6.6100000E-03    2.7959735E-20
  6.6450001E-03   -1.6971218E-20
  6.6800001E-03   -4.5731091E-20
  6.7150001E-03    6.4093032E-21
  6.7500002E-03    6.6582508E-20
  6.7850002E-03    1.6401153E-20
  6.8199998E-03   -8.6972322E-20
  6.8549998E-03   -5.6168317E-20
  6.8899998E-03    1.0015202E-19
  6.9249999E-03    1.1678230E-19
  6.9599999E-03   -9.5109757E-20
  6.9949999E-03   -1.9924266E-19
  7.0300000E-03    5.6333985E-20
  7.0650000E-03    2.9888851E-19
  7.1000000E-03    3.5949767E-20
  7.1350001E-03   -4.0132539E-19
  7.1700001E-03   -2.0318790E-19
  7.2050001E-03    4.7846556E-19
  7.2400002E-03    4.6413993E-19
  7.2750002E-03   -4.8352962E-19
  7.3099998E-03   -8.2491197E-19
  7.3449998E-03    3.5134411E-19
  7.3799998E-03    1.2693722E-18
  7.4149999E-03    2.1414290E-21
  7.4499999E-03   -1.7401438E-18
  7.4850000E-03   -6.6682312E-19
  7.5200000E-03    2.1249397E-18
  7.5550000E-03    1.7210864E-18
  7.5900001E-03   -2.2391483E-18
  7.6250001E-03   -3.1949690E-18
  7.6600001E-03    1.8231079E-18
  7.6950002E-03    5.0260181E-18
  7.7300002E-03   -5.5026970E-19
  7.7650002E-03   -6.9959189E-18
  7.7999998E-03   -1.9236664E-18
  7.8349998E-03    8.6802315E-18
  7.8699999E-03    5.8893245E-18
  7.9049999E-03   -9.3946170E-18
  7.9399999E-03   -1.1460258E-17
  7.9750000E-03    8.1842366E-18
  8.0100000E-03    1.8393243E-17
  8.0450000E-03   -3.8871301E-18
  8.0800001E-03   -2.5902681E-17
  8.1150001E-03   -4.7033175E-18
  8.1500001E-03    3.2467471E-17
  8.1850002E-03    1.8556631E-17
  8.2200002E-03   -3.5703809E-17
  8.2550002E-03   -3.7958058E-17
  8.2900003E-03    3.2415190E-17
  8.3250003E-03    6.2006332E-17
  8.3600003E-03   -1.8798343E-17
  8.3950004E-03   -8.7969540E-17
  8.4300004E-03   -8.9262392E-18
  8.4650004E-03    1.1081776E-16
  8.5000005E-03    5.3610062E-17
  8.5349996E-03   -1.2292306E-16
  8.5699996E-03   -1.1577541E-16
  8.6049996E-03    1.1435006E-16
  8.6399997E-03    1.9205433E-16
  8.6749997E-03   -7.3820569E-17
  8.7099997E-03   -2.7359972E-16
  8.7449998E-03   -9.3057728E-18
  8.7799998E-03    3.4502556E-16
  8.8149998E-03    1.4233088E-16
  8.8499999E-03   -3.8393944E-16
  8.8849999E-03   -3.2540573E-16
  8.9199999E-03    3.6214528E-16
  8.9550000E-03    5.4713421E-16
  8.9900000E-03   -2.4904574E-16
  9.0250000E-03   -7.8106025E-16
  9.0600001E-03    1.7274717E-17
  9.0950001E-03    9.8329313E-16
  9.1300001E-03    3.4940752E-16
  9.1650002E-03   -1.0929912E-15
  9.2000002E-03   -8.4646930E-16
  9.2350002E-03    1.0369569E-15
  9.2700003E-03    1.4388349E-15
  9.3050003E-03   -7.3925827E-16
  9.3400003E-03   -2.0526446E-15
  9.3750004E-03    1.3711701E-16
  9.4100004E-03    2.5729119E-15
  9.4450004E-03    8.0027424E-16
  9.4799995E-03   -2.8465590E-15
  9.5149996E-03   -2.0478341E-15
  9.5499996E-03    2.6992147E-15
  9.5849996E-03    3.5062361E-15
  9.6199997E-03   -1.9586834E-15
  9.6549997E-03   -4.9858507E-15
  9.6899997E-03    4.9277433E-16
  9.7249998E-03    6.2037316E-15
  9.7599998E-03    1.7416661E-15
  9.7949998E-03   -6.8040374E-15
  9.8299999E-03   -4.6531073E-15
  9.8649999E-03    6.3979215E-15
  9.8999999E-03    7.9772047E-15
  9.9350000E-03   -4.6251383E-15
  9.9700000E-03   -1.1248345E-14
  1.0005000E-02    1.2489978E-15
  1.0040000E-02    1.3821473E-14
  1.0075000E-02    3.7536214E-15
  1.0110000E-02   -1.4917580E-14
  1.0145000E-02   -1.0090974E-14
  1.0180000E-02    1.3735589E-14
  1.0215000E-02    1.7090306E-14
  1.0250000E-02   -9.6048632E-15
  1.0285000E-02   -2.3685023E-14
  1.0320000E-02    2.1683870E-15
  1.0355000E-02    2.8467947E-14
  1.0390000E-02    8.4073661E-15
  1.0425000E-02   -2.9859487E-14
  1.0460000E-02   -2.1280617E-14
  1.0495000E-02    2.6344737E-14
  1.0530000E-02    3.4821684E-14
  1.0565000E-02   -1.6841326E-14
  1.0600000E-02   -4.6677994E-14
  1.0635000E-02    1.0652724E-15
  1.0670000E-02    5.3976297E-14
  1.0705000E-02    2.0096765E-14
  1.0740000E-02   -5.3740968E-14
  1.0775000E-02   -4.4348511E-14
  1.0810000E-02    4.3478293E-14
  1.0845000E-02    6.7943901E-14
  1.0880000E-02   -2.1884872E-14
  1.0915000E-02   -8.5949131E-14
  1.0950000E-02   -1.0404002E-14
  1.0985000E-02    9.2916614E-14
  1.1020000E-02    5.0296904E-14
  1.1055000E-02   -8.3856133E-14
  1.1090000E-02   -9.2017865E-14
  1.1125000E-02    5.5492869E-14
  1.1160000E-02    1.2741205E-13
  1.1195000E-02   -7.6098855E-15
  1.1230000E-02   -1.4688828E-13
  1.1265000E-02   -5.5782757E-14
  1.1300000E-02    1.4109850E-13
  1.1335000E-02    1.2586953E-13
  1.1370000E-02   -1.0312195E-13
  1.1405000E-02   -1.8935165E-13
  1.1440000E-02    3.0810840E-14
  1.1475000E-02    2.2979470E-13
  1.1510000E-02    7.1004122E-14
  1.1545000E-02   -2.3019379E-13
  1.1580000E-02   -1.8901849E-13
  1.1615000E-02    1.7681905E-13
  1.1650000E-02    3.0171747E-13
  1.1685000E-02   -6.3227133E-14
  1.1720000E-02   -3.8115342E-13
  1.1755000E-02   -1.0558108E-13
  1.1790000E-02    3.9702649E-13
  1.1825000E-02    3.1024844E-13
  1.1860000E-02   -3.2280230E-13
  1.1895000E-02   -5.1661426E-13
  1.1930000E-02    1.4268336E-13
  1.1965000E-02    6.7791530E-13
  1.2000000E-02    1.4095891E-13
  1.2035000E-02   -7.4101532E-13
  1.2070000E-02   -5.0210633E-13
  1.2105000E-02    6.5565137E-13
  1.2140000E-02    8.8855697E-13
  1.2175000E-02   -3.8651192E-13
  1.2210000E-02   -1.2246760E-12
  1.2245000E-02   -7.4492096E-14
  1.2280000E-02    1.4195432E-12
  1.2315000E-02    6.9740546E-13
  1.2350000E-02   -1.3812840E-12
  1.2385000E-02   -1.4083051E-12
  1.2420000E-02    1.0357667E-12
  1.2455000E-02    2.0904034E-12
  1.2490000E-02   -3.4787516E-13
  1.2525000E-02   -2.5949941E-12
  1.2560000E-02   -6.5968260E-13
  1.2595000E-02    2.7613376E-12
  1.2630000E-02    1.8928609E-12
  1.2665000E-02   -2.4456797E-12
  1.2700000E-02   -3.1838733E-12
  1.2735000E-02    1.5548909E-12
  1.2770000E-02    4.3028090E-12
  1.2805000E-02   -7.9691929E-14
  1.2840000E-02   -4.9852357E-12
  1.2875000E-02   -1.8801868E-12
  1.2910000E-02    4.9734761E-12
  1.2945000E-02    4.1044598E-12
  1.2980000E-02   -4.0690181E-12
  1.3015000E-02   -6.2629485E-12
  1.3050000E-02    2.1855176E-12
  1.3085000E-02    7.9489852E-12
  1.3120000E-02    6.0486268E-13
  1.3155000E-02   -8.7379140E-12
  1.3190000E-02   -4.0460565E-12
  1.3225000E-02    8.2620915E-12
  1.3260000E-02    7.7009675E-12
  1.3295000E-02   -6.2939341E-12
  1.3330000E-02   -1.0991204E-11
  1.3365000E-02    2.8201560E-12
  1.3400000E-02    1.3272389E-11
  1.3435000E-02    1.9081557E-12
  1.3470000E-02   -1.3938923E-11
  1.3505000E-02   -7.3653948E-12
  1.3540000E-02    1.2544013E-11
  1.3575000E-02    1.2792601E-11
  1.3610000E-02   -8.9130483E-12
  1.3645000E-02   -1.7291382E-11
  1.3680000E-02    3.2268316E-12
  1.3715000E-02    1.9962471E-11
  1.3750000E-02    3.9482298E-12
  1.3785000E-02   -2.0068979E-11
  1.3820000E-02   -1.1697950E-11
  1.3855000E-02    1.7197053E-11
  1.3890000E-02    1.8871930E-11
  1.3925000E-02   -1.1379603E-11
  1.3960000E-02   -2.4256782E-11
  1.3995000E-02    3.1540538E-12
  1.4030000E-02    2.6787706E-11
  1.4065000E-02    6.4690250E-12
  1.4100000E-02   -2.5760560E-11
  1.4135000E-02   -1.6133189E-11
  1.4170000E-02    2.1000745E-11
  1.4205000E-02    2.4345578E-11
  1.4240000E-02   -1.2949321E-11
  1.4275000E-02   -2.9736928E-11
  1.4310000E-02    2.6372244E-12
  1.4345000E-02    3.1322001E-11
  1.4380000E-02    8.4560067E-12
  1.4415000E-02   -2.8711627E-11
  1.4450000E-02   -1.8646640E-11
  1.4485000E-02    2.2224316E-11
  1.4520000E-02    2.6353158E-11
  1.4555000E-02   -1.2863637E-11
  1.4590000E-02   -3.0406754E-11
  1.4625000E-02    2.1491524E-12
  1.4660000E-02    3.0292255E-11
  1.4695000E-02    8.1669567E-12
  1.4730000E-02   -2.6268043E-11
  1.4765000E-02   -1.6449451E-11
  1.4800000E-02    1.9327314E-11
  1.4835000E-02    2.1523960E-11
  1.4870000E-02   -1.0996685E-11
  1.4905000E-02   -2.2941584E-11
  1.4940000E-02    2.9938521E-12
  1.4975000E-02    2.1081409E-11
  1.5010000E-02    3.1749156E-12
  1.5045000E-02   -1.7057000E-11
  1.5080000E-02   -6.5820309E-12
  1.5115000E-02    1.2438930E-11
  1.5150000E-02    7.1204379E-12
  1.5185000E-02   -8.8475763E-12
  1.5220000E-02   -5.5544380E-12
  1.5255000E-02    7.4946742E-12
  1.5290000E-02    3.3293804E-12
  1.5325000E-02   -8.8050045E-12
  1.5360000E-02   -2.1713083E-12
  1.5395000E-02    1.2236663E-11
  1.5430000E-02    3.5766084E-12
  1.5465000E-02   -1.6362779E-11
  1.5500000E-02   -8.3242397E-12
  1.5535000E-02    1.9207230E-11
  1.5570000E-02    1.6127610E-11
  1.5605000E-02   -1.8796055E-11
  1.5640000E-02   -2.5561950E-11
  1.5675001E-02    1.3795153E-11
  1.5710000E-02    3.4351251E-11
  1.5745001E-02   -4.0236581E-12
  1.5780000E-02   -3.9965264E-11
  1.5814999E-02   -9.3548450E-12
  1.5850000E-02    4.0329188E-11
  1.5884999E-02    2.3998416E-11
  1.5920000E-02   -3.4495309E-11
  1.5954999E-02   -3.6931756E-11
  1.5990000E-02    2.3068315E-11
  1.6024999E-02    4.5377608E-11
  1.6060000E-02   -8.1984246E-12
  1.6094999E-02   -4.7681123E-11
  1.6130000E-02   -7.0186652E-12
  1.6164999E-02    4.3892980E-11
  1.6200000E-02    1.9489152E-11
  1.6235000E-02   -3.5849990E-11
  1.6270000E-02   -2.7194167E-11
  1.6305000E-02    2.6596106E-11
  1.6340001E-02    2.9944200E-11
  1.6375000E-02   -1.9384962E-11
  1.6410001E-02   -2.9699139E-11
  1.6445000E-02    1.6271621E-11
  1.6480001E-02    2.9910931E-11
  1.6515000E-02   -1.7127105E-11
  1.6550001E-02   -3.4350162E-11
  1.6585000E-02    1.9107315E-11
  1.6620001E-02    4.5276088E-11
  1.6655000E-02   -1.7457428E-11
  1.6690001E-02   -6.2225697E-11
  1.6725000E-02    6.7766860E-12
  1.6759999E-02    8.1025055E-11
  1.6795000E-02    1.6498388E-11
  1.6829999E-02   -9.4745725E-11
  1.6865000E-02   -5.2537443E-11
  1.6899999E-02    9.5011603E-11
  1.6935000E-02    9.6418165E-11
  1.6969999E-02   -7.5304159E-11
  1.7005000E-02   -1.3921241E-10
  1.7039999E-02    3.2749147E-11
  1.7075000E-02    1.6878485E-10
  1.7109999E-02    2.8738694E-11
  1.7145000E-02   -1.7435803E-10
  1.7180000E-02   -9.9786353E-11
  1.7215000E-02    1.4830293E-10
  1.7250000E-02    1.6536215E-10
  1.7285001E-02   -9.1100280E-11
  1.7320000E-02   -2.1061369E-10
  1.7355001E-02    9.6486820E-12
  1.7390000E-02    2.2185973E-10
  1.7425001E-02    8.0217451E-11
  1.7460000E-02   -1.9447910E-10
  1.7495001E-02   -1.6147297E-10
  1.7530000E-02    1.3025145E-10
  1.7565001E-02    2.1518205E-10
  1.7600000E-02   -4.3117617E-11
  1.7635001E-02   -2.3198536E-10
  1.7670000E-02   -5.1345456E-11
  1.7704999E-02    2.0676744E-10
  1.7740000E-02    1.3118745E-10
  1.7774999E-02   -1.4961378E-10
  1.7810000E-02   -1.8428434E-10
  1.7844999E-02    7.1798407E-11
  1.7880000E-02    1.9954187E-10
  1.7914999E-02    4.6870220E-12
  1.7950000E-02   -1.8375410E-10
  1.7984999E-02   -6.9426631E-11
  1.8020000E-02    1.4114296E-10
  1.8054999E-02    1.0696927E-10
  1.8090000E-02   -9.2222188E-11
  1.8124999E-02   -1.2351573E-10
  1.8160000E-02    4.1864200E-11
  1.8195000E-02    1.1652673E-10
  1.8230001E-02   -6.6835040E-12
  1.8265000E-02   -1.0482968E-10
  1.8300001E-02   -2.2927771E-11
  1.8335000E-02    8.4717629E-11
  1.8370001E-02    3.8679438E-11
  1.8405000E-02   -7.2748647E-11
  1.8440001E-02   -6.0529332E-11
  1.8475000E-02    5.1493112E-11
  1.8510001E-02    7.5466917E-11
  1.8545000E-02   -3.2380203E-11
  1.8580001E-02   -9.9564745E-11
  1.8615000E-02   -9.6364314E-12
  1.8650001E-02    1.0317631E-10
  1.8685000E-02    5.0624921E-11
  1.8719999E-02   -1.0211394E-10
  1.8755000E-02   -1.0986480E-10
  1.8789999E-02    6.3229151E-11
  1.8825000E-02    1.4847765E-10
  1.8859999E-02   -1.3589734E-11
  1.8895000E-02   -1.8161671E-10
  1.8929999E-02   -7.1482861E-11
  1.8965000E-02    1.6181963E-10
  1.8999999E-02    1.3828026E-10
  1.9035000E-02   -1.2449167E-10
  1.9069999E-02   -2.0754744E-10
  1.9105000E-02    3.5791922E-11
  1.9140000E-02    2.2152712E-10
  1.9175000E-02    4.5695739E-11
  1.9210000E-02   -2.1724647E-10
  1.9245001E-02   -1.4893689E-10
  1.9280000E-02    1.4325688E-10
  1.9315001E-02    1.9875636E-10
  1.9350000E-02   -6.6679329E-11
  1.9385001E-02   -2.3561897E-10
  1.9420000E-02   -4.8316341E-11
  1.9455001E-02    1.9852400E-10
  1.9490000E-02    1.2190254E-10
  1.9525001E-02   -1.5451283E-10
  1.9560000E-02   -2.0005521E-10
  1.9595001E-02    5.1119314E-11
  1.9630000E-02    2.0262259E-10
  1.9664999E-02    2.1873637E-11
  1.9700000E-02   -1.9743715E-10
  1.9734999E-02   -1.1087403E-10
  1.9770000E-02    1.2854488E-10
  1.9804999E-02    1.3397722E-10
  1.9840000E-02   -8.3670133E-11
  1.9874999E-02   -1.5889562E-10
  1.9910000E-02    1.0330396E-11
  1.9944999E-02    1.2297029E-10
  1.9980000E-02    1.1440302E-11
  2.0014999E-02   -1.0197013E-10
  2.0050000E-02   -3.3920266E-11
  2.0085000E-02    5.6582277E-11
  2.0120000E-02    5.3460209E-12
  2.0155000E-02   -5.5619141E-11
  2.0190001E-02    1.1912330E-11
  2.0225000E-02    6.3385221E-11
  2.0260001E-02   -3.8068888E-11
  2.0295000E-02   -1.1419298E-10
  2.0330001E-02    1.4934779E-11
  2.0365000E-02    1.4902790E-10
  2.0400001E-02    2.3038529E-11
  2.0435000E-02   -1.8364787E-10
  2.0470001E-02   -9.9520454E-11
  2.0505000E-02    1.8118396E-10
  2.0540001E-02    1.9382861E-10
  2.0575000E-02   -1.2144157E-10
  2.0609999E-02   -2.6380703E-10
  2.0645000E-02    2.7491492E-11
  2.0679999E-02    3.0766717E-10
  2.0715000E-02    1.1438481E-10
  2.0749999E-02   -2.6637120E-10
  2.0785000E-02   -2.2546459E-10
  2.0819999E-02    1.9213087E-10
  2.0855000E-02    3.3108377E-10
  2.0889999E-02   -4.1963859E-11
  2.0925000E-02   -3.4989864E-10
  2.0959999E-02   -9.9622012E-11
  2.0995000E-02    3.3567024E-10
  2.1029999E-02    2.8522232E-10
  2.1065000E-02   -1.7460222E-10
  2.1100000E-02   -3.2857997E-10
  2.1135001E-02    7.1267575E-11
  2.1170000E-02    4.0946022E-10
  2.1205001E-02    1.4952453E-10
  2.1240000E-02   -3.2231570E-10
  2.1275001E-02   -2.7227237E-10
  2.1310000E-02    2.3901092E-10
  2.1345001E-02    4.2130072E-10
  2.1380000E-02   -2.5012593E-11
  2.1415001E-02   -4.1747650E-10
  2.1450000E-02   -1.3934098E-10
  2.1485001E-02    3.8578069E-10
  2.1520000E-02    3.4589934E-10
  2.1555001E-02   -1.8615548E-10
  2.1590000E-02   -3.7215583E-10
  2.1624999E-02    7.3316284E-11
  2.1660000E-02    4.5418375E-10
  2.1694999E-02    1.9293410E-10
  2.1730000E-02   -3.0273170E-10
  2.1764999E-02   -3.0660940E-10
  2.1800000E-02    1.4192755E-10
  2.1834999E-02    3.6542738E-10
  2.1870000E-02    7.0604876E-11
  2.1904999E-02   -2.8600303E-10
  2.1940000E-02   -2.1027816E-10
  2.1974999E-02    1.5144913E-10
  2.2010000E-02    2.7797475E-10
  2.2045000E-02    1.9015239E-11
  2.2080000E-02   -2.2923040E-10
  2.2115000E-02   -1.1426637E-10
  2.2150001E-02    1.8031605E-10
  2.2185000E-02    2.2969061E-10
  2.2220001E-02   -1.3059297E-11
  2.2255000E-02   -1.9166278E-10
  2.2290001E-02   -1.0254705E-10
  2.2325000E-02    5.0315946E-11
  2.2360001E-02    3.3230436E-11
  2.2395000E-02   -8.2578916E-11
  2.2430001E-02   -1.1482599E-10
  2.2465000E-02   -5.7584174E-11
  2.2500001E-02   -5.8894621E-12
  2.2535000E-02    1.3875322E-11
  2.2569999E-02   -4.1980378E-12
  2.2605000E-02   -7.9692281E-11
  2.2639999E-02   -1.3116995E-10
  2.2675000E-02   -4.5234122E-11
  2.2709999E-02    7.1152167E-11
  2.2745000E-02   -2.3637036E-12
  2.2779999E-02   -1.7820033E-10
  2.2815000E-02   -1.3895347E-10
  2.2849999E-02    6.8561781E-11
  2.2885000E-02    2.7038280E-11
  2.2919999E-02   -2.8662189E-10
  2.2955000E-02   -3.4484704E-10
  2.2990000E-02    1.8448703E-11
  2.3025000E-02    2.1898916E-10
  2.3060000E-02   -1.0065936E-10
  2.3095001E-02   -3.9884263E-10
  2.3130000E-02   -1.4638374E-10
  2.3165001E-02    2.4045166E-10
  2.3200000E-02    1.1638708E-10
  2.3235001E-02   -2.9255884E-10
  2.3270000E-02   -3.1806763E-10
  2.3305001E-02    2.8262040E-11
  2.3340000E-02    1.6810155E-10
  2.3375001E-02   -6.4935744E-11
  2.3410000E-02   -2.7679639E-10
  2.3445001E-02   -2.1303900E-10
  2.3480000E-02   -4.0282600E-11
  2.3514999E-02    2.2937732E-11
  2.3550000E-02   -3.8071570E-11
  2.3584999E-02   -1.2767390E-10
  2.3620000E-02   -1.5386975E-10
  2.3654999E-02   -8.0960086E-11
  2.3690000E-02    2.1956810E-11
  2.3724999E-02    4.8654324E-11
  2.3760000E-02   -8.1921952E-12
  2.3794999E-02   -6.9762390E-11
  2.3830000E-02   -6.9407147E-11
  2.3864999E-02    1.5954023E-11
  2.3900000E-02    1.0859510E-10
  2.3934999E-02    3.5712527E-11
  2.3970000E-02   -1.8506983E-10
  2.4005000E-02   -2.1924657E-10
  2.4040001E-02    7.7339989E-11
  2.4075000E-02    2.8479843E-10
  2.4110001E-02    3.7438313E-11
  2.4145000E-02   -2.8551878E-10
  2.4180001E-02   -1.0495385E-10
  2.4215000E-02    3.6446141E-10
  2.4250001E-02    3.9289119E-10
  2.4285000E-02   -7.8712432E-11
  2.4320001E-02   -3.1506717E-10
  2.4355000E-02    4.0333282E-11
  2.4390001E-02    4.2724985E-10
  2.4425000E-02    2.8124264E-10
  2.4460001E-02   -1.4620354E-10
  2.4495000E-02   -2.4139465E-10
  2.4529999E-02    9.6145647E-11
  2.4565000E-02    3.7977302E-10
  2.4599999E-02    2.3028544E-10
  2.4635000E-02   -1.2095493E-10
  2.4669999E-02   -1.8338014E-10
  2.4705000E-02    1.0506646E-10
  2.4739999E-02    3.5689898E-10
  2.4775000E-02    2.9943453E-10
  2.4809999E-02    3.4443948E-11
  2.4845000E-02   -1.7188395E-10
  2.4879999E-02   -1.1980854E-10
  2.4915000E-02    1.6743848E-10
  2.4950000E-02    3.6329859E-10
  2.4985000E-02    1.2899193E-10
  2.5020000E-02   -3.3373504E-10
  2.5055001E-02   -3.4551167E-10
  2.5090000E-02    2.5654009E-10
  2.5125001E-02    6.2275551E-10
  2.5160000E-02    1.0008889E-10
  2.5195001E-02   -5.5783772E-10
  2.5230000E-02   -2.6488162E-10
  2.5265001E-02    5.5248839E-10
  2.5300000E-02    5.4278582E-10
  2.5335001E-02   -3.5273248E-10
  2.5370000E-02   -7.5345191E-10
  2.5405001E-02   -7.1717736E-11
  2.5440000E-02    5.4244415E-10
  2.5474999E-02    9.1356291E-11
  2.5510000E-02   -6.6936701E-10
  2.5544999E-02   -5.1536991E-10
  2.5580000E-02    2.5814792E-10
  2.5614999E-02    3.7803155E-10
  2.5650000E-02   -3.1140071E-10
  2.5684999E-02   -6.1530608E-10
  2.5720000E-02    1.9808119E-11
  2.5754999E-02    5.2239363E-10
  2.5790000E-02   -6.5485242E-11
  2.5824999E-02   -8.9379354E-10
  2.5860000E-02   -6.1337274E-10
  2.5895000E-02    3.1762071E-10
  2.5930000E-02    3.0384947E-10
  2.5965000E-02   -6.6623734E-10
  2.6000001E-02   -9.3061331E-10
  2.6035000E-02   -4.8948397E-11
  2.6070001E-02    4.1234188E-10
  2.6105000E-02   -2.6989022E-10
  2.6140001E-02   -7.5849477E-10
  2.6175000E-02   -2.7563707E-10
  2.6210001E-02    1.4428728E-10
  2.6245000E-02   -9.3124515E-11
  2.6280001E-02   -2.4618996E-10
  2.6315000E-02   -8.3345726E-11
  2.6350001E-02   -1.9267732E-10
  2.6385000E-02   -4.3940540E-10
  2.6419999E-02   -2.3805063E-10
  2.6455000E-02    7.4320633E-13
  2.6489999E-02   -3.9182960E-10
  2.6525000E-02   -7.4208684E-10
  2.6559999E-02   -1.9557239E-10
  2.6595000E-02    3.2629030E-10
  2.6629999E-02   -2.0573226E-10
  2.6665000E-02   -6.0971977E-10
  2.6699999E-02    1.8632970E-10
  2.6735000E-02    6.7499117E-10
  2.6769999E-02   -2.3365387E-10
  2.6805000E-02   -8.8537466E-10
  2.6839999E-02   -2.3047456E-10
  2.6875000E-02    2.9461364E-10
  2.6910000E-02   -8.3796477E-11
  2.6945001E-02   -2.8861977E-10
  2.6980000E-02   -7.2995299E-12