 -4.8000002E-03    1.0000000E-24
 -4.7650002E-03    1.0000002E-24
 -4.7300002E-03    1.0000001E-24
 -4.6950001E-03    1.0000000E-24
 -4.6600001E-03    1.0000003E-24
 -4.6250001E-03    1.0000002E-24
 -4.5900000E-03    1.0000000E-24
 -4.5550000E-03    1.0000001E-24
 -4.5200000E-03    1.0000000E-24
 -4.4849999E-03    1.0000000E-24
 -4.4499999E-03    1.0000002E-24
 -4.4149999E-03    1.0000000E-24
 -4.3799998E-03    9.9999992E-25
 -4.3449998E-03    1.0000000E-24
 -4.3100002E-03    1.0000003E-24
 -4.2750002E-03    1.0000002E-24
 -4.2400002E-03    1.0000001E-24
 -4.2050001E-03    1.0000002E-24
 -4.1700001E-03    1.0000004E-24
 -4.1350001E-03    9.9999992E-25
 -4.1000000E-03    9.9999943E-25
 -4.0650000E-03    1.0000003E-24
 -4.0300000E-03    1.0000004E-24
 -3.9949999E-03    9.9999943E-25
 -3.9599999E-03    9.9999982E-25
 -3.9249999E-03    1.0000007E-24
 -3.8900001E-03    9.9999982E-25
 -3.8550000E-03    9.9999963E-25
 -3.8200000E-03    1.0000006E-24
 -3.7849999E-03    1.0000004E-24
 -3.7499999E-03    9.9999972E-25
 -3.7150001E-03    1.0000005E-24
 -3.6800001E-03    1.0000007E-24
 -3.6450000E-03    9.9999953E-25
 -3.6100000E-03    9.9999953E-25
 -3.5750000E-03    1.0000003E-24
 -3.5399999E-03    9.9999992E-25
 -3.5049999E-03    9.9999972E-25
 -3.4700001E-03    1.0000006E-24
 -3.4350001E-03    1.0000005E-24
 -3.4000000E-03    9.9999982E-25
 -3.3650000E-03    9.9999982E-25
 -3.3300000E-03    1.0000003E-24
 -3.2949999E-03    9.9999992E-25
 -3.2599999E-03    9.9999972E-25
 -3.2250001E-03    9.9999992E-25
 -3.1900001E-03    1.0000001E-24
 -3.1550000E-03    1.0000002E-24
 -3.1200000E-03    1.0000004E-24
 -3.0850000E-03    1.0000006E-24
 -3.0499999E-03    1.0000000E-24
 -3.0149999E-03    9.9999992E-25
 -2.9800001E-03    1.0000004E-24
 -2.9450001E-03    1.0000001E-24
 -2.9100000E-03    9.9999972E-25
 -2.8750000E-03    1.0000001E-24
 -2.8400000E-03    1.0000002E-24
 -2.8049999E-03    9.9999992E-25
 -2.7699999E-03    1.0000000E-24
 -2.7350001E-03    1.0000006E-24
 -2.7000001E-03    1.0000006E-24
 -2.6650000E-03    9.9999963E-25
 -2.6300000E-03    9.9999933E-25
 -2.5950000E-03    9.9999992E-25
 -2.5599999E-03    1.0000002E-24
 -2.5249999E-03    1.0000005E-24
 -2.4900001E-03    1.0000008E-24
 -2.4550001E-03    1.0000005E-24
 -2.4200000E-03    1.0000002E-24
 -2.3850000E-03    9.9999992E-25
 -2.3500000E-03    9.9999953E-25
 -2.3149999E-03    9.9999933E-25
 -2.2799999E-03    9.9999923E-25
 -2.2450001E-03    9.9999992E-25
 -2.2100001E-03    1.0000007E-24
 -2.1750000E-03    1.0000002E-24
 -2.1400000E-03    9.9999943E-25
 -2.1050000E-03    1.0000005E-24
 -2.0699999E-03    1.0000011E-24
 -2.0349999E-03    9.9999992E-25
 -2.0000001E-03    9.9999963E-25
 -1.9650001E-03    1.0000007E-24
 -1.9300000E-03    1.0000008E-24
 -1.8950000E-03    1.0000000E-24
 -1.8600000E-03    9.9999943E-25
 -1.8250000E-03    1.0000002E-24
 -1.7900000E-03    1.0000005E-24
 -1.7550000E-03    9.9999943E-25
 -1.7199999E-03    9.9999963E-25
 -1.6850000E-03    1.0000013E-24
 -1.6500000E-03    1.0000004E-24
 -1.6150000E-03    9.9999844E-25
 -1.5800000E-03    9.9999884E-25
 -1.5450000E-03    9.9999992E-25
 -1.5100000E-03    9.9999992E-25
 -1.4750001E-03    1.0000003E-24
 -1.4400000E-03    1.0000007E-24
 -1.4050000E-03    1.0000006E-24
 -1.3700000E-03    1.0000008E-24
 -1.3350000E-03    1.0000001E-24
 -1.3000000E-03    9.9999923E-25
 -1.2650000E-03    9.9999963E-25
 -1.2300001E-03    1.0000004E-24
 -1.1950000E-03    1.0000004E-24
 -1.1600000E-03    9.9999982E-25
 -1.1250000E-03    9.9999972E-25
 -1.0900000E-03    1.0000003E-24
 -1.0550000E-03    1.0000001E-24
 -1.0200000E-03    9.9999923E-25
 -9.8500005E-04    9.9999992E-25
 -9.5000002E-04    1.0000006E-24
 -9.1499998E-04    1.0000000E-24
 -8.8000001E-04    1.0000007E-24
 -8.4499997E-04    1.0000006E-24
 -8.1000000E-04    9.9999923E-25
 -7.7500002E-04    9.9999972E-25
 -7.3999999E-04    1.0000006E-24
 -7.0500001E-04    9.9999923E-25
 -6.6999998E-04    9.9999963E-25
 -6.3500000E-04    1.0000015E-24
 -6.0000003E-04    1.0000001E-24
 -5.6499999E-04    9.9999893E-25
 -5.3000002E-04    1.0000004E-24
 -4.9499999E-04    1.0000010E-24
 -4.6000001E-04    9.9999972E-25
 -4.2500001E-04    9.9999933E-25
 -3.9000000E-04    1.0000012E-24
 -3.5500000E-04    1.0000017E-24
 -3.1999999E-04    9.9999923E-25
 -2.8499999E-04    9.9999854E-25
 -2.5000001E-04    1.0000010E-24
 -2.1499999E-04    1.0000000E-24
 -1.8000000E-04    9.9999805E-25
 -1.4500000E-04    1.0000003E-24
 -1.1000000E-04    1.0000018E-24
 -7.5000004E-05    9.9999963E-25
 -3.9999999E-05    9.9999982E-25
 -4.9999999E-06    1.0000009E-24
  2.9999999E-05    1.0000000E-24
  6.5000000E-05    9.9999963E-25
  9.9999997E-05    9.9999982E-25
  1.3499999E-04    9.9999923E-25
  1.7000000E-04    9.9999953E-25
  2.0500000E-04    1.0000001E-24
  2.3999999E-04    1.0000004E-24
  2.7500000E-04    1.0000009E-24
  3.1000000E-04    1.0000002E-24
  3.4500001E-04    9.9999982E-25
  3.8000001E-04    1.0000011E-24
  4.1499999E-04    1.0000003E-24
  4.4999999E-04    9.9999913E-25
  4.8500000E-04    1.0000003E-24
  5.2000000E-04    1.0000000E-24
  5.5499998E-04    9.9999913E-25
  5.9000001E-04    1.0000010E-24
  6.2499999E-04    1.0000016E-24
  6.6000002E-04    9.9999953E-25
  6.9500000E-04    9.9999972E-25
  7.3000003E-04    1.0000001E-24
  7.6500000E-04    9.9999943E-25
  7.9999998E-04    1.0000007E-24
  8.3500001E-04    1.0000006E-24
  8.6999999E-04    9.9999923E-25
  9.0500002E-04    1.0000007E-24
  9.4000000E-04    1.0000012E-24
  9.7499997E-04    9.9999943E-25
  1.0100000E-03    1.0000000E-24
  1.0450000E-03    1.0000005E-24
  1.0800000E-03    9.9999844E-25
  1.1150000E-03    9.9999884E-25
  1.1500000E-03    1.0000002E-24
  1.1849999E-03    9.9999943E-25
  1.2200000E-03    9.9999972E-25
  1.2550000E-03    1.0000011E-24
  1.2900000E-03    1.0000004E-24
  1.3250000E-03    1.0000000E-24
  1.3600000E-03    1.0000009E-24
  1.3950000E-03    1.0000003E-24
  1.4299999E-03    9.9999884E-25
  1.4650000E-03    9.9999992E-25
  1.5000000E-03    1.0000014E-24
  1.5350000E-03    1.0000001E-24
  1.5700000E-03    9.9999933E-25
  1.6050000E-03    1.0000005E-24
  1.6400000E-03    1.0000005E-24
  1.6749999E-03    9.9999933E-25
  1.7100000E-03    9.9999953E-25
  1.7450000E-03    1.0000010E-24
  1.7800000E-03    1.0000000E-24
  1.8150000E-03    9.9999874E-25
  1.8500000E-03    1.0000008E-24
  1.8850000E-03    1.0000016E-24
  1.9200000E-03    9.9999913E-25
  1.9550000E-03    9.9999982E-25
  1.9900000E-03    1.0000018E-24
  2.0250001E-03    9.9999972E-25
  2.0600001E-03    9.9999874E-25
  2.0949999E-03    1.0000011E-24
  2.1299999E-03    1.0000004E-24
  2.1650000E-03    9.9999893E-25
  2.2000000E-03    1.0000008E-24
  2.2350000E-03    1.0000012E-24
  2.2700001E-03    9.9999913E-25
  2.3050001E-03    9.9999943E-25
  2.3399999E-03    1.0000009E-24
  2.3749999E-03    1.0000003E-24
  2.4100000E-03    9.9999893E-25
  2.4450000E-03    9.9999923E-25
  2.4800000E-03    1.0000004E-24
  2.5150001E-03    1.0000008E-24
  2.5500001E-03    1.0000002E-24
  2.5849999E-03    9.9999972E-25
  2.6199999E-03    9.9999982E-25
  2.6550000E-03    9.9999953E-25
  2.6900000E-03    1.0000001E-24
  2.7250000E-03    1.0000002E-24
  2.7600001E-03    1.0000004E-24
  2.7950001E-03    1.0000015E-24
  2.8299999E-03    1.0000014E-24
  2.8649999E-03    9.9999943E-25
  2.9000000E-03    9.9999933E-25
  2.9350000E-03    1.0000007E-24
  2.9700000E-03    9.9999982E-25
  3.0050001E-03    9.9999913E-25
  3.0400001E-03    1.0000002E-24
  3.0749999E-03    1.0000011E-24
  3.1099999E-03    9.9999992E-25
  3.1450000E-03    9.9999893E-25
  3.1800000E-03    9.9999943E-25
  3.2150000E-03    1.0000002E-24
  3.2500001E-03    1.0000003E-24
  3.2850001E-03    1.0000008E-24
  3.3199999E-03    1.0000014E-24
  3.3549999E-03    1.0000001E-24
  3.3900000E-03    9.9999923E-25
  3.4250000E-03    1.0000001E-24
  3.4600000E-03    9.9999972E-25
  3.4950001E-03    9.9999943E-25
  3.5300001E-03    1.0000012E-24
  3.5649999E-03    1.0000004E-24
  3.5999999E-03    9.9999874E-25
  3.6350000E-03    9.9999972E-25
  3.6700000E-03    1.0000008E-24
  3.7050000E-03    9.9999943E-25
  3.7400001E-03    9.9999953E-25
  3.7750001E-03    1.0000013E-24
  3.8099999E-03    1.0000011E-24
  3.8449999E-03    9.9999903E-25
  3.8800000E-03    9.9999963E-25
  3.9149998E-03    1.0000005E-24
  3.9499998E-03    9.9999874E-25
  3.9849998E-03    9.9999854E-25
  4.0199999E-03    1.0000016E-24
  4.0549999E-03    1.0000017E-24
  4.0899999E-03    9.9999815E-25
  4.1250000E-03    9.9999884E-25
  4.1600000E-03    1.0000019E-24
  4.1950000E-03    1.0000007E-24
  4.2300001E-03    9.9999854E-25
  4.2650001E-03    1.0000000E-24
  4.3000001E-03    1.0000014E-24
  4.3350002E-03    1.0000018E-24
  4.3700002E-03    1.0000026E-24
  4.4049998E-03    9.9999400E-25
  4.4399998E-03    9.9999410E-25
  4.4749998E-03    1.0000087E-24
  4.5099999E-03    1.0000049E-24
  4.5449999E-03    9.9998868E-25
  4.5799999E-03    9.9999272E-25
  4.6150000E-03    1.0000149E-24
  4.6500000E-03    1.0000251E-24
  4.6850001E-03    9.9999479E-25
  4.7200001E-03    9.9997714E-25
  4.7550001E-03    1.0000219E-24
  4.7900002E-03    1.0000511E-24
  4.8250002E-03    9.9999164E-25
  4.8600002E-03    9.9994500E-25
  4.8949998E-03    9.9998483E-25
  4.9299998E-03    1.0001041E-24
  4.9649999E-03    1.0001367E-24
  4.9999999E-03    9.9988396E-25
  5.0349999E-03    9.9975794E-25
  5.0700000E-03    1.0001239E-24
  5.1050000E-03    1.0002898E-24
  5.1400000E-03    9.9973151E-25
  5.1750001E-03    9.9942583E-25
  5.2100001E-03    1.0000360E-24
  5.2450001E-03    1.0009044E-24
  5.2800002E-03    1.0001524E-24
  5.3150002E-03    9.9854408E-25
  5.3500002E-03    9.9878932E-25
  5.3849998E-03    1.0017111E-24
  5.4199998E-03    1.0019209E-24
  5.4549999E-03    9.9791891E-25
  5.4899999E-03    9.9664588E-25
  5.5249999E-03    1.0009830E-24
  5.5600000E-03    1.0058060E-24
  5.5950000E-03    1.0009970E-24
  5.6300000E-03    9.9120343E-25
  5.6650001E-03    9.9510770E-25
  5.7000001E-03    1.0117002E-24
  5.7350001E-03    1.0151874E-24
  5.7700002E-03    9.8716032E-25
  5.8050002E-03    9.7213499E-25
  5.8400002E-03    1.0140623E-24
  5.8749998E-03    1.0486636E-24
  5.9099998E-03    9.9259873E-25
  5.9449999E-03    9.2219674E-25
  5.9799999E-03    9.8724177E-25
  6.0149999E-03    1.1218647E-24
  6.0500000E-03    1.0561390E-24
  6.0850000E-03    8.5057813E-25
  6.1200000E-03    8.7957922E-25
  6.1550001E-03    1.1915963E-24
  6.1900001E-03    1.2374641E-24
  6.2250001E-03    7.8699293E-25
  6.2600002E-03    5.6375565E-25
  6.2950002E-03    1.1784904E-24
  6.3299998E-03    1.7347891E-24
  6.3649998E-03    9.8558635E-25
  6.3999998E-03   -1.1140397E-25
  6.4349999E-03    6.3580508E-25
  6.4699999E-03    2.5096685E-24
  6.5049999E-03    2.0176488E-24
  6.5400000E-03   -8.9856247E-25
  6.5750000E-03   -1.1685566E-24
  6.6100000E-03    3.0358604E-24
  6.6450001E-03    4.9095973E-24
  6.6800001E-03   -7.0421899E-25
  6.7150001E-03   -5.3717495E-24
  6.7500002E-03    1.4147684E-24
  6.7850002E-03    1.0540297E-23
  6.8199998E-03    3.5746384E-24
  6.8549998E-03   -1.1885309E-23
  6.8899998E-03   -6.6060226E-24
  6.9249999E-03    1.7110066E-23
  6.9599999E-03    1.7728895E-23
  6.9949999E-03   -1.6397073E-23
  7.0300000E-03   -2.8791549E-23
  7.0650000E-03    1.4613349E-23
  7.1000000E-03    4.8118243E-23
  7.1350001E-03   -2.4116904E-24
  7.1700001E-03   -6.5273292E-23
  7.2050001E-03   -1.8583665E-23
  7.2400002E-03    8.7269991E-23
  7.2750002E-03    6.1505907E-23
  7.3099998E-03   -9.8454158E-23
  7.3449998E-03   -1.2417198E-22
  7.3799998E-03    9.6011983E-23
  7.4149999E-03    2.1504437E-22
  7.4499999E-03   -5.7639144E-23
  7.4850000E-03   -3.2283248E-22
  7.5200000E-03   -3.2774791E-23
  7.5550000E-03    4.3879872E-22
  7.5900001E-03    2.0737384E-22
  7.6250001E-03   -5.3253644E-22
  7.6600001E-03   -4.8835079E-22
  7.6950002E-03    5.5788693E-22
  7.7300002E-03    8.9302286E-22
  7.7650002E-03   -4.3037388E-22
  7.7999998E-03   -1.3983090E-21
  7.8349998E-03    7.9539917E-23
  7.8699999E-03    1.9643558E-21
  7.9049999E-03    6.1869485E-22
  7.9399999E-03   -2.4540744E-21
  7.9750000E-03   -1.7961365E-21
  8.0100000E-03    2.6774667E-21
  8.0450000E-03    3.5221169E-21
  8.0800001E-03   -2.3146412E-21
  8.1150001E-03   -5.6933024E-21
  8.1500001E-03    1.0036545E-21
  8.1850002E-03    8.2377592E-21
  8.2200002E-03    1.8225552E-21
  8.2550002E-03   -1.0493511E-20
  8.2900003E-03   -6.5179490E-21
  8.3250003E-03    1.1801510E-20
  8.3600003E-03    1.3364192E-20
  8.3950004E-03   -1.0928475E-20
  8.4300004E-03   -2.2222017E-20
  8.4650004E-03    6.1830244E-21
  8.5000005E-03    3.2286365E-20
  8.5349996E-03    4.0659792E-21
  8.5699996E-03   -4.1817699E-20
  8.6049996E-03   -2.1480124E-20
  8.6399997E-03    4.8239015E-20
  8.6749997E-03    4.7342606E-20
  8.7099997E-03   -4.6562691E-20
  8.7449998E-03   -8.0621417E-20
  8.7799998E-03    3.1441061E-20
  8.8149998E-03    1.1881089E-19
  8.8499999E-03    3.9485737E-21
  8.8849999E-03   -1.5567327E-19
  8.9199999E-03   -6.3994324E-20
  8.9550000E-03    1.8190471E-19
  8.9900000E-03    1.5285440E-19
  9.0250000E-03   -1.8202142E-19
  9.0600001E-03   -2.6989802E-19
  9.0950001E-03    1.3579524E-19
  9.1300001E-03    4.0322620E-19
  9.1650002E-03   -2.4745249E-20
  9.2000002E-03   -5.3567224E-19
  9.2350002E-03   -1.6917120E-19
  9.2700003E-03    6.3722215E-19
  9.3050003E-03    4.5934875E-19
  9.3400003E-03   -6.5492625E-19
  9.3750004E-03   -8.3765872E-19
  9.4100004E-03    5.3651141E-19
  9.4450004E-03    1.2808994E-18
  9.4799995E-03   -2.2067806E-19
  9.5149996E-03   -1.7233587E-18
  9.5499996E-03   -3.5145764E-19
  9.5849996E-03    2.0681484E-18
  9.6199997E-03    1.2035193E-18
  9.6549997E-03   -2.1898751E-18
  9.6899997E-03   -2.3359293E-18
  9.7249998E-03    1.9240178E-18
  9.7599998E-03    3.6753260E-18
  9.7949998E-03   -1.0829140E-18
  9.8299999E-03   -5.0487163E-18
  9.8649999E-03   -4.8860147E-19
  9.8999999E-03    6.1667642E-18
  9.9350000E-03    2.8695781E-18
  9.9700000E-03   -6.6997295E-18
  1.0005000E-02   -6.0548558E-18
  1.0040000E-02    6.1633782E-18
  1.0075000E-02    9.7850793E-18
  1.0110000E-02   -4.1174156E-18
  1.0145000E-02   -1.3687850E-17
  1.0180000E-02    1.7429179E-19
  1.0215000E-02    1.7012814E-17
  1.0250000E-02    5.9493080E-18
  1.0285000E-02   -1.8867110E-17
  1.0320000E-02   -1.4163041E-17
  1.0355000E-02    1.8183321E-17
  1.0390000E-02    2.4004775E-17
  1.0425000E-02   -1.3703503E-17
  1.0460000E-02   -3.4348503E-17
  1.0495000E-02    4.4322074E-18
  1.0530000E-02    4.3522551E-17
  1.0565000E-02    1.0312270E-17
  1.0600000E-02   -4.9194115E-17
  1.0635000E-02   -3.0234090E-17
  1.0670000E-02    4.8660709E-17
  1.0705000E-02    5.4040014E-17
  1.0740000E-02   -3.9327597E-17
  1.0775000E-02   -7.9360787E-17
  1.0810000E-02    1.8704306E-17
  1.0845000E-02    1.0212715E-16
  1.0880000E-02    1.4278041E-17
  1.0915000E-02   -1.1737742E-16
  1.0950000E-02   -5.9344657E-17
  1.0985000E-02    1.1874744E-16
  1.1020000E-02    1.1319026E-16
  1.1055000E-02   -1.0061091E-16
  1.1090000E-02   -1.7086357E-16
  1.1125000E-02    5.6611268E-17
  1.1160000E-02    2.2165024E-16
  1.1195000E-02    1.2862044E-17
  1.1230000E-02   -2.5642408E-16
  1.1265000E-02   -1.0740162E-16
  1.1300000E-02    2.6176682E-16
  1.1335000E-02    2.1967471E-16
  1.1370000E-02   -2.2655355E-16
  1.1405000E-02   -3.3858927E-16
  1.1440000E-02    1.3994062E-16
  1.1475000E-02    4.4281490E-16
  1.1510000E-02   -9.8511059E-19
  1.1545000E-02   -5.1075166E-16
  1.1580000E-02   -1.8344256E-16
  1.1615000E-02    5.2115137E-16
  1.1650000E-02    4.0008945E-16
  1.1685000E-02   -4.5092572E-16
  1.1720000E-02   -6.2020626E-16
  1.1755000E-02    2.8568063E-16
  1.1790000E-02    8.0511726E-16
  1.1825000E-02   -2.6809991E-17
  1.1860000E-02   -9.1295127E-16
  1.1895000E-02   -3.0650403E-16
  1.1930000E-02    9.0897393E-16
  1.1965000E-02    6.7900940E-16
  1.2000000E-02   -7.5609374E-16
  1.2035000E-02   -1.0311418E-15
  1.2070000E-02    4.4636910E-16
  1.2105000E-02    1.3000473E-15
  1.2140000E-02    9.5201896E-18
  1.2175000E-02   -1.4188030E-15
  1.2210000E-02   -5.6490777E-16
  1.2245000E-02    1.3194852E-15
  1.2280000E-02    1.1276109E-15
  1.2315000E-02   -9.8079840E-16
  1.2350000E-02   -1.6076088E-15
  1.2385000E-02    3.9804643E-16
  1.2420000E-02    1.8802315E-15
  1.2455000E-02    3.6597604E-16
  1.2490000E-02   -1.8334744E-15
  1.2525000E-02   -1.1810178E-15
  1.2560000E-02    1.4187717E-15
  1.2595000E-02    1.9069818E-15
  1.2630000E-02   -6.1300568E-16
  1.2665000E-02   -2.3405549E-15
  1.2700000E-02   -5.0615121E-16
  1.2735000E-02    2.2870421E-15
  1.2770000E-02    1.7441377E-15
  1.2805000E-02   -1.6226942E-15
  1.2840000E-02   -2.8215271E-15
  1.2875000E-02    3.3319529E-16
  1.2910000E-02    3.4766569E-15
  1.2945000E-02    1.5378835E-15
  1.2980000E-02   -3.3142750E-15
  1.3015000E-02   -3.6830826E-15
  1.3050000E-02    2.1091982E-15
  1.3085000E-02    5.6738057E-15
  1.3120000E-02    2.9005915E-16
  1.3155000E-02   -6.9432019E-15
  1.3190000E-02   -3.7823477E-15
  1.3225000E-02    6.9142249E-15
  1.3260000E-02    8.0254898E-15
  1.3295000E-02   -4.9714867E-15
  1.3330000E-02   -1.2280300E-14
  1.3365000E-02    8.0879735E-16
  1.3400000E-02    1.5635722E-14
  1.3435000E-02    5.6333036E-15
  1.3470000E-02   -1.6930449E-14
  1.3505000E-02   -1.3901482E-14
  1.3540000E-02    1.5071535E-14
  1.3575000E-02    2.3022732E-14
  1.3610000E-02   -9.1490443E-15
  1.3645000E-02   -3.1468440E-14
  1.3680000E-02   -1.2530097E-15
  1.3715000E-02    3.7294840E-14
  1.3750000E-02    1.5831564E-14
  1.3785000E-02   -3.8440751E-14
  1.3820000E-02   -3.3452418E-14
  1.3855000E-02    3.2886705E-14
  1.3890000E-02    5.1927274E-14
  1.3925000E-02   -1.9244829E-14
  1.3960000E-02   -6.8156811E-14
  1.3995000E-02   -2.7852921E-15
  1.4030000E-02    7.8613440E-14
  1.4065000E-02    3.2275408E-14
  1.4100000E-02   -7.9573480E-14
  1.4135000E-02   -6.6687615E-14
  1.4170000E-02    6.7778377E-14
  1.4205000E-02    1.0179015E-13
  1.4240000E-02   -4.1235719E-14
  1.4275000E-02   -1.3214617E-13
  1.4310000E-02   -3.0443629E-16
  1.4345000E-02    1.5140707E-13
  1.4380000E-02    5.4537541E-14
  1.4415000E-02   -1.5349888E-13
  1.4450000E-02   -1.1669420E-13
  1.4485000E-02    1.3338592E-13
  1.4520000E-02    1.7953602E-13
  1.4555000E-02   -8.8075699E-14
  1.4590000E-02   -2.3373865E-13
  1.4625000E-02    1.7942962E-14
  1.4660000E-02    2.6932094E-13
  1.4695000E-02    7.3115335E-14
  1.4730000E-02   -2.7660993E-13
  1.4765000E-02   -1.7706568E-13
  1.4800000E-02    2.4796492E-13
  1.4835000E-02    2.8221820E-13
  1.4870000E-02   -1.7934695E-13
  1.4905000E-02   -3.7437626E-13
  1.4940000E-02    7.1440006E-14
  1.4975000E-02    4.3827561E-13
  1.5010000E-02    6.9482892E-14
  1.5045000E-02   -4.5958067E-13
  1.5080000E-02   -2.3129944E-13
  1.5115000E-02    4.2737474E-13
  1.5150000E-02    3.9727726E-13
  1.5185000E-02   -3.3544340E-13
  1.5220000E-02   -5.4682425E-13
  1.5255000E-02    1.8456192E-13
  1.5290000E-02    6.5824034E-13
  1.5325000E-02    1.6861192E-14
  1.5360000E-02   -7.1125451E-13
  1.5395000E-02   -2.5289219E-13
  1.5430000E-02    6.8963330E-13
  1.5465000E-02    5.0078127E-13
  1.5500000E-02   -5.8387534E-13
  1.5535000E-02   -7.3310146E-13
  1.5570000E-02    3.9293419E-13
  1.5605000E-02    9.2014775E-13
  1.5640000E-02   -1.2567946E-13
  1.5675001E-02   -1.0332237E-12
  1.5710000E-02   -1.9880290E-13
  1.5745001E-02    1.0482649E-12
  1.5780000E-02    5.5249490E-13
  1.5814999E-02   -9.4837202E-13
  1.5850000E-02   -8.9938495E-13
  1.5884999E-02    7.2763979E-13
  1.5920000E-02    1.1991486E-12
  1.5954999E-02   -3.9289367E-13
  1.5990000E-02   -1.4107388E-12
  1.6024999E-02   -3.5022959E-14
  1.6060000E-02    1.4968879E-12
  1.6094999E-02    5.2130907E-13
  1.6130000E-02   -1.4289065E-12
  1.6164999E-02   -1.0186984E-12
  1.6200000E-02    1.1912357E-12
  1.6235000E-02    1.4697434E-12
  1.6270000E-02   -7.8776612E-13
  1.6305000E-02   -1.8140691E-12
  1.6340001E-02    2.4395091E-13
  1.6375000E-02    1.9955010E-12
  1.6410001E-02    3.9268296E-13
  1.6445000E-02   -1.9707840E-12
  1.6480001E-02   -1.0561905E-12
  1.6515000E-02    1.7153808E-12
  1.6550001E-02    1.6641569E-12
  1.6585000E-02   -1.2350222E-12
  1.6620001E-02   -2.1299245E-12
  1.6655000E-02    5.7031344E-13
  1.6690001E-02    2.3778019E-12
  1.6725000E-02    2.0621764E-13
  1.6759999E-02   -2.3568109E-12
  1.6795000E-02   -9.9997105E-13
  1.6829999E-02    2.0472833E-12
  1.6865000E-02    1.7006460E-12
  1.6899999E-02   -1.4732032E-12
  1.6935000E-02   -2.1991528E-12
  1.6969999E-02    7.0889497E-13
  1.7005000E-02    2.4145339E-12
  1.7039999E-02    1.3177355E-13
  1.7075000E-02   -2.3170300E-12
  1.7109999E-02   -9.2491498E-13
  1.7145000E-02    1.9245339E-12
  1.7180000E-02    1.5499630E-12
  1.7215000E-02   -1.3043043E-12
  1.7250000E-02   -1.9054977E-12
  1.7285001E-02    5.7768813E-13
  1.7320000E-02    1.9440020E-12
  1.7355001E-02    1.0208987E-13
  1.7390000E-02   -1.7007551E-12
  1.7425001E-02   -6.0608398E-13
  1.7460000E-02    1.2706983E-12
  1.7495001E-02    8.5666505E-13
  1.7530000E-02   -7.7355841E-13
  1.7565001E-02   -8.1952972E-13
  1.7600000E-02    3.5420571E-13
  1.7635001E-02    5.2468240E-13
  1.7670000E-02   -1.6527639E-13
  1.7704999E-02   -1.0249668E-13
  1.7740000E-02    2.8598318E-13
  1.7774999E-02   -2.6526424E-13
  1.7810000E-02   -6.8329993E-13
  1.7844999E-02    4.3291483E-13
  1.7880000E-02    1.2664079E-12
  1.7914999E-02   -2.9459955E-13
  1.7950000E-02   -1.9103707E-12
  1.7984999E-02   -2.3912927E-13
  1.8020000E-02    2.4017346E-12
  1.8054999E-02    1.1490688E-12
  1.8090000E-02   -2.4932716E-12
  1.8124999E-02   -2.2395391E-12
  1.8160000E-02    2.0666843E-12
  1.8195000E-02    3.2618793E-12
  1.8230001E-02   -1.1445230E-12
  1.8265000E-02   -4.0285865E-12
  1.8300001E-02   -2.3294759E-13
  1.8335000E-02    4.3210895E-12
  1.8370001E-02    1.9436876E-12
  1.8405000E-02   -3.8844800E-12
  1.8440001E-02   -3.6404399E-12
  1.8475000E-02    2.6752695E-12
  1.8510001E-02    4.9246393E-12
  1.8545000E-02   -9.2561245E-13
  1.8580001E-02   -5.6167800E-12
  1.8615000E-02   -1.1341947E-12
  1.8650001E-02    5.6387113E-12
  1.8685000E-02    3.3374345E-12
  1.8719999E-02   -4.8274574E-12
  1.8755000E-02   -5.3137039E-12
  1.8789999E-02    3.2084511E-12
  1.8825000E-02    6.5998843E-12
  1.8859999E-02   -1.1977901E-12
  1.8895000E-02   -7.0907941E-12
  1.8929999E-02   -8.0237992E-13
  1.8965000E-02    6.9654430E-12
  1.8999999E-02    2.6936944E-12
  1.9035000E-02   -6.2331303E-12
  1.9069999E-02   -4.2978633E-12
  1.9105000E-02    4.9064090E-12
  1.9140000E-02    5.2497316E-12
  1.9175000E-02   -3.3944791E-12
  1.9210000E-02   -5.5427481E-12
  1.9245001E-02    2.1088487E-12
  1.9280000E-02    5.5804185E-12
  1.9315001E-02   -9.3289352E-13
  1.9350000E-02   -5.4616914E-12
  1.9385001E-02   -2.9168093E-13
  1.9420000E-02    4.9937003E-12
  1.9455001E-02    1.3365268E-12
  1.9490000E-02   -4.3288684E-12
  1.9525001E-02   -2.1346989E-12
  1.9560000E-02    3.7781900E-12
  1.9595001E-02    3.1109861E-12
  1.9630000E-02   -3.0395617E-12
  1.9664999E-02   -4.3249584E-12
  1.9700000E-02    1.6626003E-12
  1.9734999E-02    5.2574663E-12
  1.9770000E-02    1.9538978E-13
  1.9804999E-02   -5.6302107E-12
  1.9840000E-02   -2.1576252E-12
  1.9874999E-02    5.6608238E-12
  1.9910000E-02    4.3998316E-12
  1.9944999E-02   -5.1154888E-12
  1.9980000E-02   -6.9336941E-12
  2.0014999E-02    3.4570725E-12
  2.0050000E-02    9.1095170E-12
  2.0085000E-02   -6.6026915E-13
  2.0120000E-02   -1.0148829E-11
  2.0155000E-02   -2.6002527E-12
  2.0190001E-02    9.9667124E-12
  2.0225000E-02    5.8988192E-12
  2.0260001E-02   -8.5669354E-12
  2.0295000E-02   -8.9118617E-12
  2.0330001E-02    5.8923131E-12
  2.0365000E-02    1.1189888E-11
  2.0400001E-02   -1.9076769E-12
  2.0435000E-02   -1.1851748E-11
  2.0470001E-02   -2.6240253E-12
  2.0505000E-02    1.0520762E-11
  2.0540001E-02    6.6837339E-12
  2.0575000E-02   -7.4371950E-12
  2.0609999E-02   -9.3883668E-12
  2.0645000E-02    3.4669852E-12
  2.0679999E-02    1.0778291E-11
  2.0715000E-02    1.2878865E-12
  2.0749999E-02   -1.0283683E-11
  2.0785000E-02   -6.2871496E-12
  2.0819999E-02    7.1429564E-12
  2.0855000E-02    9.9144261E-12
  2.0889999E-02   -1.7308050E-12
  2.0925000E-02   -1.0298385E-11
  2.0959999E-02   -3.4242054E-12
  2.0995000E-02    8.4610548E-12
  2.1029999E-02    7.7278670E-12
  2.1065000E-02   -5.1883224E-12
  2.1100000E-02   -1.1695120E-11
  2.1135001E-02   -6.0891244E-13
  2.1170000E-02    1.3851194E-11
  2.1205001E-02    9.2418226E-12
  2.1240000E-02   -1.0662696E-11
  2.1275001E-02   -1.6035836E-11
  2.1310000E-02    3.9972604E-12
  2.1345001E-02    1.8679591E-11
  2.1380000E-02    2.2467744E-12
  2.1415001E-02   -1.9463407E-11
  2.1450000E-02   -8.1248376E-12
  2.1485001E-02    1.9628757E-11
  2.1520000E-02    1.6231714E-11
  2.1555001E-02   -1.4779004E-11
  2.1590000E-02   -2.2213096E-11
  2.1624999E-02    5.5616631E-12
  2.1660000E-02    2.1835318E-11
  2.1694999E-02    2.4789058E-12
  2.1730000E-02   -1.7125430E-11
  2.1764999E-02   -6.7731203E-12
  2.1800000E-02    1.2370864E-11
  2.1834999E-02    1.0590982E-11
  2.1870000E-02   -5.4631273E-12
  2.1904999E-02   -1.2361169E-11
  2.1940000E-02   -3.3690941E-12
  2.1974999E-02    9.9949589E-12
  2.2010000E-02    1.0876402E-11
  2.2045000E-02   -5.2234601E-12
  2.2080000E-02   -1.6065165E-11
  2.2115000E-02    6.3294151E-13
  2.2150001E-02    2.1791973E-11
  2.2185000E-02    6.8944503E-12
  2.2220001E-02   -2.4797733E-11
  2.2255000E-02   -1.5638152E-11
  2.2290001E-02    2.3479172E-11
  2.2325000E-02    2.1284649E-11
  2.2360001E-02   -2.2020614E-11
  2.2395000E-02   -2.5210185E-11
  2.2430001E-02    2.2903516E-11
  2.2465000E-02    3.3270178E-11
  2.2500001E-02   -1.9109913E-11
  2.2535000E-02   -4.1362851E-11
  2.2569999E-02    8.3678507E-12
  2.2605000E-02    4.1993232E-11
  2.2639999E-02    2.6288136E-12
  2.2675000E-02   -3.5507767E-11
  2.2709999E-02   -8.1967332E-12
  2.2745000E-02    2.8358637E-11
  2.2779999E-02    1.1102527E-11
  2.2815000E-02   -2.1631126E-11
  2.2849999E-02   -1.4199329E-11
  2.2885000E-02    1.2191035E-11
  2.2919999E-02    1.5389280E-11
  2.2955000E-02    1.0555098E-12
  2.2990000E-02   -9.7719992E-12
  2.3025000E-02   -1.3267404E-11
  2.3060000E-02   -3.8491133E-12
  2.3095001E-02    1.6121066E-11
  2.3130000E-02    1.6782482E-11
  2.3165001E-02   -1.0313576E-11
  2.3200000E-02   -2.0415804E-11
  2.3235001E-02    7.0477482E-12
  2.3270000E-02    2.0487518E-11
  2.3305001E-02   -9.4534016E-12
  2.3340000E-02   -2.7182399E-11
  2.3375001E-02    5.0772468E-12
  2.3410000E-02    3.1943417E-11
  2.3445001E-02    7.1317444E-12
  2.3480000E-02   -2.3066996E-11
  2.3514999E-02   -1.2049591E-11
  2.3550000E-02    7.0915457E-12
  2.3584999E-02    1.1242450E-12
  2.3620000E-02   -1.7042870E-12
  2.3654999E-02    1.2545756E-11
  2.3690000E-02    7.3183707E-12
  2.3724999E-02   -1.8729197E-11
  2.3760000E-02   -1.5106730E-11
  2.3794999E-02    1.7940944E-11
  2.3830000E-02    1.9734310E-11
  2.3864999E-02   -1.5161931E-11
  2.3900000E-02   -2.3097047E-11
  2.3934999E-02    1.0203469E-11
  2.3970000E-02    2.5166513E-11
  2.4005000E-02   -2.8233960E-12
  2.4040001E-02   -2.6031005E-11
  2.4075000E-02   -9.9384685E-12
  2.4110001E-02    1.9083349E-11
  2.4145000E-02    2.2676149E-11
  2.4180001E-02   -1.9341774E-12
  2.4215000E-02   -2.5158370E-11
  2.4250001E-02   -1.5498144E-11
  2.4285000E-02    1.8690854E-11
  2.4320001E-02    2.5844354E-11
  2.4355000E-02   -1.2174332E-11
  2.4390001E-02   -3.3775288E-11
  2.4425000E-02    4.4076461E-12
  2.4460001E-02    3.8912200E-11
  2.4495000E-02    6.1523009E-12
  2.4529999E-02   -3.4701277E-11
  2.4565000E-02   -8.5128545E-12
  2.4599999E-02    3.1219725E-11
  2.4635000E-02    5.1481389E-12
  2.4669999E-02   -3.6730684E-11
  2.4705000E-02   -1.1680610E-11
  2.4739999E-02    3.6865649E-11
  2.4775000E-02    2.5026533E-11
  2.4809999E-02   -1.7089453E-11
  2.4845000E-02   -1.6801669E-11
  2.4879999E-02    4.4169577E-12
  2.4915000E-02   -4.3538641E-12
  2.4950000E-02   -1.4353845E-11
  2.4985000E-02    9.1138893E-12
  2.5020000E-02    2.3930708E-11
  2.5055001E-02    2.7625896E-12
  2.5090000E-02   -7.2421179E-12
  2.5125001E-02    7.8061524E-12
  2.5160000E-02   -3.8629768E-12
  2.5195001E-02   -3.4705381E-11
  2.5230000E-02   -1.3993167E-11
  2.5265001E-02    4.3029212E-11
  2.5300000E-02    4.3262186E-11
  2.5335001E-02   -1.4749087E-11
  2.5370000E-02   -3.7728140E-11
  2.5405001E-02   -5.8511329E-12
  2.5440000E-02    8.5608231E-12
  2.5474999E-02   -1.0835732E-11
  2.5510000E-02   -3.7648105E-12
  2.5544999E-02    3.6658905E-11
  2.5580000E-02    4.3816770E-11
  2.5614999E-02   -6.9623318E-12
  2.5650000E-02   -5.9936389E-11
  2.5684999E-02   -5.3876299E-11
  2.5720000E-02    1.2937527E-11
  2.5754999E-02    7.2905570E-11
  2.5790000E-02    4.9316381E-11
  2.5824999E-02   -3.4025380E-11
  2.5860000E-02   -5.9305366E-11
  2.5895000E-02    8.3800640E-12
  2.5930000E-02    4.9340421E-11
  2.5965000E-02   -1.2420894E-11
  2.6000001E-02   -6.5700813E-11
  2.6035000E-02   -3.6295333E-12
  2.6070001E-02    7.8601292E-11
  2.6105000E-02    4.9241985E-11
  2.6140001E-02   -3.8652952E-11
  2.6175000E-02   -6.2854812E-11
  2.6210001E-02   -1.8803039E-11
  2.6245000E-02    3.3146555E-11
  2.6280001E-02    5.1426297E-11
  2.6315000E-02    7.4716318E-12
  2.6350001E-02   -5.9649237E-11
  2.6385000E-02   -4.4792604E-11
  2.6419999E-02    4.9314445E-11
  2.6455000E-02    7.4650557E-11
  2.6489999E-02   -2.2780862E-11
  2.6525000E-02   -8.5481684E-11
  2.6559999E-02   -8.7909833E-13
  2.6595000E-02    7.8151742E-11
  2.6629999E-02   -2.5544391E-12
  2.6665000E-02   -8.1781429E-11
  2.6699999E-02    1.4192819E-11
  2.6735000E-02    9.7684798E-11
  2.6769999E-02   -6.2201121E-12
  2.6805000E-02   -9.1217978E-11
  2.6839999E-02   -3.2580366E-12
  2.6875000E-02    6.1260413E-11
  2.6910000E-02   -1.2860967E-11
  2.6945001E-02   -5.8790299E-11
  2.6980000E-02    1.3582483E-11