 -4.8000002E-03    1.0000000E-24
 -4.7650002E-03    1.0000000E-24
 -4.7300002E-03    1.0000001E-24
 -4.6950001E-03    1.0000002E-24
 -4.6600001E-03    1.0000002E-24
 -4.6250001E-03    1.0000000E-24
 -4.5900000E-03    1.0000000E-24
 -4.5550000E-03    1.0000002E-24
 -4.5200000E-03    1.0000001E-24
 -4.4849999E-03    1.0000002E-24
 -4.4499999E-03    1.0000001E-24
 -4.4149999E-03    9.9999992E-25
 -4.3799998E-03    1.0000000E-24
 -4.3449998E-03    1.0000004E-24
 -4.3100002E-03    1.0000004E-24
 -4.2750002E-03    9.9999992E-25
 -4.2400002E-03    9.9999972E-25
 -4.2050001E-03    1.0000000E-24
 -4.1700001E-03    1.0000002E-24
 -4.1350001E-03    1.0000000E-24
 -4.1000000E-03    1.0000000E-24
 -4.0650000E-03    1.0000000E-24
 -4.0300000E-03    1.0000000E-24
 -3.9949999E-03    1.0000002E-24
 -3.9599999E-03    1.0000001E-24
 -3.9249999E-03    9.9999992E-25
 -3.8900001E-03    1.0000001E-24
 -3.8550000E-03    1.0000003E-24
 -3.8200000E-03    9.9999992E-25
 -3.7849999E-03    1.0000000E-24
 -3.7499999E-03    1.0000004E-24
 -3.7150001E-03    1.0000003E-24
 -3.6800001E-03    1.0000001E-24
 -3.6450000E-03    1.0000000E-24
 -3.6100000E-03    9.9999982E-25
 -3.5750000E-03    9.9999963E-25
 -3.5399999E-03    1.0000000E-24
 -3.5049999E-03    1.0000005E-24
 -3.4700001E-03    1.0000005E-24
 -3.4350001E-03    1.0000002E-24
 -3.4000000E-03    1.0000000E-24
 -3.3650000E-03    9.9999972E-25
 -3.3300000E-03    9.9999963E-25
 -3.2949999E-03    9.9999992E-25
 -3.2599999E-03    1.0000001E-24
 -3.2250001E-03    1.0000003E-24
 -3.1900001E-03    1.0000003E-24
 -3.1550000E-03    1.0000001E-24
 -3.1200000E-03    9.9999972E-25
 -3.0850000E-03    9.9999982E-25
 -3.0499999E-03    1.0000001E-24
 -3.0149999E-03    1.0000003E-24
 -2.9800001E-03    1.0000002E-24
 -2.9450001E-03    1.0000002E-24
 -2.9100000E-03    1.0000000E-24
 -2.8750000E-03    9.9999982E-25
 -2.8400000E-03    1.0000001E-24
 -2.8049999E-03    1.0000001E-24
 -2.7699999E-03    9.9999982E-25
 -2.7350001E-03    1.0000001E-24
 -2.7000001E-03    1.0000005E-24
 -2.6650000E-03    1.0000002E-24
 -2.6300000E-03    1.0000002E-24
 -2.5950000E-03    1.0000005E-24
 -2.5599999E-03    1.0000004E-24
 -2.5249999E-03    1.0000003E-24
 -2.4900001E-03    1.0000002E-24
 -2.4550001E-03    9.9999992E-25
 -2.4200000E-03    9.9999963E-25
 -2.3850000E-03    1.0000000E-24
 -2.3500000E-03    1.0000002E-24
 -2.3149999E-03    1.0000001E-24
 -2.2799999E-03    1.0000003E-24
 -2.2450001E-03    1.0000002E-24
 -2.2100001E-03    9.9999953E-25
 -2.1750000E-03    9.9999963E-25
 -2.1400000E-03    1.0000002E-24
 -2.1050000E-03    1.0000003E-24
 -2.0699999E-03    9.9999982E-25
 -2.0349999E-03    1.0000002E-24
 -2.0000001E-03    1.0000010E-24
 -1.9650001E-03    1.0000007E-24
 -1.9300000E-03    9.9999992E-25
 -1.8950000E-03    9.9999992E-25
 -1.8600000E-03    9.9999992E-25
 -1.8250000E-03    1.0000000E-24
 -1.7900000E-03    1.0000000E-24
 -1.7550000E-03    9.9999963E-25
 -1.7199999E-03    9.9999992E-25
 -1.6850000E-03    1.0000007E-24
 -1.6500000E-03    1.0000004E-24
 -1.6150000E-03    9.9999963E-25
 -1.5800000E-03    9.9999963E-25
 -1.5450000E-03    1.0000001E-24
 -1.5100000E-03    1.0000008E-24
 -1.4750001E-03    1.0000008E-24
 -1.4400000E-03    1.0000000E-24
 -1.4050000E-03    9.9999943E-25
 -1.3700000E-03    9.9999972E-25
 -1.3350000E-03    9.9999972E-25
 -1.3000000E-03    9.9999972E-25
 -1.2650000E-03    1.0000004E-24
 -1.2300001E-03    1.0000010E-24
 -1.1950000E-03    1.0000004E-24
 -1.1600000E-03    9.9999933E-25
 -1.1250000E-03    9.9999933E-25
 -1.0900000E-03    1.0000003E-24
 -1.0550000E-03    1.0000008E-24
 -1.0200000E-03    1.0000003E-24
 -9.8500005E-04    1.0000004E-24
 -9.5000002E-04    1.0000002E-24
 -9.1499998E-04    9.9999972E-25
 -8.8000001E-04    1.0000001E-24
 -8.4499997E-04    1.0000006E-24
 -8.1000000E-04    9.9999992E-25
 -7.7500002E-04    9.9999933E-25
 -7.3999999E-04    1.0000002E-24
 -7.0500001E-04    1.0000010E-24
 -6.6999998E-04    1.0000000E-24
 -6.3500000E-04    9.9999953E-25
 -6.0000003E-04    1.0000005E-24
 -5.6499999E-04    1.0000010E-24
 -5.3000002E-04    9.9999982E-25
 -4.9499999E-04    9.9999903E-25
 -4.6000001E-04    9.9999943E-25
 -4.2500001E-04    9.9999992E-25
 -3.9000000E-04    1.0000005E-24
 -3.5500000E-04    1.0000009E-24
 -3.1999999E-04    1.0000002E-24
 -2.8499999E-04    9.9999963E-25
 -2.5000001E-04    1.0000000E-24
 -2.1499999E-04    9.9999992E-25
 -1.8000000E-04    9.9999982E-25
 -1.4500000E-04    1.0000007E-24
 -1.1000000E-04    1.0000008E-24
 -7.5000004E-05    9.9999992E-25
 -3.9999999E-05    1.0000000E-24
 -4.9999999E-06    1.0000007E-24
  2.9999999E-05    1.0000005E-24
  6.5000000E-05    1.0000001E-24
  9.9999997E-05    1.0000001E-24
  1.3499999E-04    9.9999943E-25
  1.7000000E-04    9.9999943E-25
  2.0500000E-04    1.0000007E-24
  2.3999999E-04    1.0000005E-24
  2.7500000E-04    9.9999903E-25
  3.1000000E-04    9.9999992E-25
  3.4500001E-04    1.0000010E-24
  3.8000001E-04    9.9999982E-25
  4.1499999E-04    9.9999982E-25
  4.4999999E-04    1.0000008E-24
  4.8500000E-04    9.9999953E-25
  5.2000000E-04    9.9999864E-25
  5.5499998E-04    1.0000008E-24
  5.9000001E-04    1.0000014E-24
  6.2499999E-04    9.9999982E-25
  6.6000002E-04    1.0000000E-24
  6.9500000E-04    1.0000002E-24
  7.3000003E-04    9.9999923E-25
  7.6500000E-04    9.9999943E-25
  7.9999998E-04    9.9999992E-25
  8.3500001E-04    9.9999963E-25
  8.6999999E-04    1.0000007E-24
  9.0500002E-04    1.0000015E-24
  9.4000000E-04    9.9999992E-25
  9.7499997E-04    9.9999933E-25
  1.0100000E-03    1.0000006E-24
  1.0450000E-03    1.0000011E-24
  1.0800000E-03    1.0000007E-24
  1.1150000E-03    9.9999982E-25
  1.1500000E-03    9.9999923E-25
  1.1849999E-03    1.0000001E-24
  1.2200000E-03    1.0000007E-24
  1.2550000E-03    1.0000002E-24
  1.2900000E-03    1.0000002E-24
  1.3250000E-03    1.0000004E-24
  1.3600000E-03    9.9999963E-25
  1.3950000E-03    9.9999953E-25
  1.4299999E-03    1.0000000E-24
  1.4650000E-03    1.0000001E-24
  1.5000000E-03    1.0000003E-24
  1.5350000E-03    1.0000005E-24
  1.5700000E-03    9.9999982E-25
  1.6050000E-03    9.9999933E-25
  1.6400000E-03    9.9999943E-25
  1.6749999E-03    9.9999992E-25
  1.7100000E-03    1.0000007E-24
  1.7450000E-03    1.0000008E-24
  1.7800000E-03    1.0000006E-24
  1.8150000E-03    1.0000007E-24
  1.8500000E-03    9.9999992E-25
  1.8850000E-03    9.9999874E-25
  1.9200000E-03    9.9999963E-25
  1.9550000E-03    1.0000008E-24
  1.9900000E-03    1.0000005E-24
  2.0250001E-03    1.0000001E-24
  2.0600001E-03    1.0000004E-24
  2.0949999E-03    1.0000000E-24
  2.1299999E-03    1.0000000E-24
  2.1650000E-03    1.0000008E-24
  2.2000000E-03    1.0000010E-24
  2.2350000E-03    9.9999992E-25
  2.2700001E-03    9.9999943E-25
  2.3050001E-03    1.0000002E-24
  2.3399999E-03    1.0000009E-24
  2.3749999E-03    9.9999992E-25
  2.4100000E-03    9.9999903E-25
  2.4450000E-03    9.9999963E-25
  2.4800000E-03    1.0000007E-24
  2.5150001E-03    1.0000006E-24
  2.5500001E-03    9.9999933E-25
  2.5849999E-03    9.9999923E-25
  2.6199999E-03    1.0000007E-24
  2.6550000E-03    1.0000008E-24
  2.6900000E-03    1.0000000E-24
  2.7250000E-03    9.9999933E-25
  2.7600001E-03    9.9999923E-25
  2.7950001E-03    9.9999963E-25
  2.8299999E-03    9.9999992E-25
  2.8649999E-03    9.9999992E-25
  2.9000000E-03    1.0000013E-24
  2.9350000E-03    1.0000026E-24
  2.9700000E-03    1.0000006E-24
  3.0050001E-03    9.9999824E-25
  3.0400001E-03    9.9999844E-25
  3.0749999E-03    9.9999992E-25
  3.1099999E-03    1.0000014E-24
  3.1450000E-03    1.0000020E-24
  3.1800000E-03    9.9999953E-25
  3.2150000E-03    9.9999815E-25
  3.2500001E-03    1.0000002E-24
  3.2850001E-03    1.0000007E-24
  3.3199999E-03    1.0000000E-24
  3.3549999E-03    1.0000011E-24
  3.3900000E-03    1.0000012E-24
  3.4250000E-03    9.9999893E-25
  3.4600000E-03    9.9999854E-25
  3.4950001E-03    1.0000004E-24
  3.5300001E-03    1.0000016E-24
  3.5649999E-03    1.0000013E-24
  3.5999999E-03    9.9999953E-25
  3.6350000E-03    9.9999815E-25
  3.6700000E-03    9.9999884E-25
  3.7050000E-03    1.0000004E-24
  3.7400001E-03    1.0000016E-24
  3.7750001E-03    1.0000019E-24
  3.8099999E-03    9.9999972E-25
  3.8449999E-03    9.9999736E-25
  3.8800000E-03    9.9999864E-25
  3.9149998E-03    1.0000024E-24
  3.9499998E-03    1.0000030E-24
  3.9849998E-03    9.9999923E-25
  4.0199999E-03    9.9999598E-25
  4.0549999E-03    1.0000008E-24
  4.0899999E-03    1.0000077E-24
  4.1250000E-03    1.0000000E-24
  4.1600000E-03    9.9998513E-25
  4.1950000E-03    9.9999617E-25
  4.2300001E-03    1.0000250E-24
  4.2650001E-03    1.0000138E-24
  4.3000001E-03    9.9996304E-25
  4.3350002E-03    9.9996965E-25
  4.3700002E-03    1.0000551E-24
  4.4049998E-03    1.0000637E-24
  4.4399998E-03    9.9992557E-25
  4.4749998E-03    9.9987282E-25
  4.5099999E-03    1.0000842E-24
  4.5449999E-03    1.0002282E-24
  4.5799999E-03    9.9992646E-25
  4.6150000E-03    9.9960490E-25
  4.6500000E-03    1.0000068E-24
  4.6850001E-03    1.0006467E-24
  4.7200001E-03    1.0001535E-24
  4.7550001E-03    9.9899412E-25
  4.7900002E-03    9.9947188E-25
  4.8250002E-03    1.0014763E-24
  4.8600002E-03    1.0012988E-24
  4.8949998E-03    9.9798409E-25
  4.9299998E-03    9.9723250E-25
  4.9649999E-03    1.0023220E-24
  4.9999999E-03    1.0050150E-24
  5.0349999E-03    9.9758601E-25
  5.0700000E-03    9.9123962E-25
  5.1050000E-03    1.0012791E-24
  5.1400000E-03    1.0139063E-24
  5.1750001E-03    1.0018401E-24
  5.2100001E-03    9.7868342E-25
  5.2450001E-03    9.9058418E-25
  5.2800002E-03    1.0301476E-24
  5.3150002E-03    1.0235539E-24
  5.3500002E-03    9.6020859E-25
  5.3849998E-03    9.5128776E-25
  5.4199998E-03    1.0468840E-24
  5.4549999E-03    1.0886683E-24
  5.4899999E-03    9.5449971E-25
  5.5249999E-03    8.4960990E-25
  5.5600000E-03    1.0219003E-24
  5.5950000E-03    1.2345779E-24
  5.6300000E-03    1.0408201E-24
  5.6650001E-03    6.5772634E-25
  5.7000001E-03    8.2943567E-25
  5.7350001E-03    1.4620266E-24
  5.7700002E-03    1.4034540E-24
  5.8050002E-03    4.3177853E-25
  5.8400002E-03    2.0548831E-25
  5.8749998E-03    1.5894153E-24
  5.9099998E-03    2.3773223E-24
  5.9449999E-03    5.7277085E-25
  5.9799999E-03   -1.1823353E-24
  6.0149999E-03    9.1677352E-25
  6.0500000E-03    4.2138563E-24
  6.0850000E-03    2.1977789E-24
  6.1200000E-03   -3.3553067E-24
  6.1550001E-03   -2.2239143E-24
  6.1900001E-03    6.3586839E-24
  6.2250001E-03    7.5668051E-24
  6.2600002E-03   -4.6258567E-24
  6.2950002E-03   -1.0535626E-23
  6.3299998E-03    5.2475031E-24
  6.3649998E-03    1.9302686E-23
  6.3999998E-03    1.2313002E-24
  6.4349999E-03   -2.5526343E-23
  6.4699999E-03   -8.6797932E-24
  6.5049999E-03    3.6129486E-23
  6.5400000E-03    2.7506586E-23
  6.5750000E-03   -4.0550401E-23
  6.6100000E-03   -5.2230724E-23
  6.6450001E-03    4.1926117E-23
  6.6800001E-03    9.2515310E-23
  6.7150001E-03   -2.4998590E-23
  6.7500002E-03   -1.4024976E-22
  6.7850002E-03   -1.2913788E-23
  6.8199998E-03    1.9909694E-22
  6.8549998E-03    9.3614509E-23
  6.8899998E-03   -2.4895993E-22
  6.9249999E-03   -2.2419147E-22
  6.9599999E-03    2.7488983E-22
  6.9949999E-03    4.2523980E-22
  7.0300000E-03   -2.3101086E-22
  7.0650000E-03   -6.9103660E-22
  7.1000000E-03    7.2628025E-23
  7.1350001E-03    1.0150748E-21
  7.1700001E-03    2.8410461E-22
  7.2050001E-03   -1.3319378E-21
  7.2400002E-03   -9.0708594E-22
  7.2750002E-03    1.5481477E-21
  7.3099998E-03    1.8799846E-21
  7.3449998E-03   -1.4747326E-21
  7.3799998E-03   -3.2271537E-21
  7.4149999E-03    8.4667641E-22
  7.4499999E-03    4.8844232E-21
  7.4850000E-03    6.8439770E-22
  7.5200000E-03   -6.6243059E-21
  7.5550000E-03   -3.5191309E-21
  7.5900001E-03    7.9670288E-21
  7.6250001E-03    8.0292306E-21
  7.6600001E-03   -8.0797710E-21
  7.6950002E-03   -1.4387036E-20
  7.7300002E-03    5.7546317E-21
  7.7650002E-03    2.2360619E-20
  7.7999998E-03    6.0971153E-22
  7.8349998E-03   -3.0961703E-20
  7.8699999E-03   -1.2824924E-20
  7.9049999E-03    3.8132748E-20
  7.9399999E-03    3.2598051E-20
  7.9750000E-03   -4.0268383E-20
  8.0100000E-03   -6.0773231E-20
  8.0450000E-03    3.2183769E-20
  8.0800001E-03    9.6466036E-20
  8.1150001E-03   -7.0002874E-21
  8.1500001E-03   -1.3563576E-19
  8.1850002E-03   -4.2878956E-20
  8.2200002E-03    1.6969279E-19
  8.2550002E-03    1.2437141E-19
  8.2900003E-03   -1.8421664E-19
  8.3250003E-03   -2.4109076E-19
  8.3600003E-03    1.5825758E-19
  8.3950004E-03    3.8928117E-19
  8.4300004E-03   -6.4951172E-20
  8.4650004E-03   -5.5321167E-19
  8.5000005E-03   -1.2517632E-19
  8.5349996E-03    6.9975266E-19
  8.5699996E-03    4.3817629E-19
  8.6049996E-03   -7.7418274E-19
  8.6399997E-03   -8.8649835E-19
  8.6749997E-03    6.9864729E-19
  8.7099997E-03    1.4555058E-18
  8.7449998E-03   -3.7596346E-19
  8.7799998E-03   -2.0864427E-18
  8.8149998E-03   -2.9911564E-19
  8.8499999E-03    2.6582655E-18
  8.8849999E-03    1.4141522E-18
  8.9199999E-03   -2.9789615E-18
  8.9550000E-03   -3.0081604E-18
  8.9900000E-03    2.7812269E-18
  9.0250000E-03    5.0222424E-18
  9.0600001E-03   -1.7393846E-18
  9.0950001E-03   -7.2493290E-18
  9.1300001E-03   -4.8609289E-19
  9.1650002E-03    9.2836192E-18
  9.2000002E-03    4.1682165E-18
  9.2350002E-03   -1.0497657E-17
  9.2700003E-03   -9.4086087E-18
  9.3050003E-03    1.0038471E-17
  9.3400003E-03    1.5989305E-17
  9.3750004E-03   -6.8996318E-18
  9.4100004E-03   -2.3225577E-17
  9.4450004E-03    7.5621433E-20
  9.4799995E-03    2.9852809E-17
  9.5149996E-03    1.1204052E-17
  9.5499996E-03   -3.3951029E-17
  9.5849996E-03   -2.7142643E-17
  9.6199997E-03    3.3019773E-17
  9.6549997E-03    4.7005362E-17
  9.6899997E-03   -2.4182513E-17
  9.7249998E-03   -6.8709539E-17
  9.7599998E-03    4.6698155E-18
  9.7949998E-03    8.8518477E-17
  9.8299999E-03    2.7472084E-17
  9.8649999E-03   -1.0101349E-16
  9.8999999E-03   -7.2534899E-17
  9.9350000E-03    9.9334406E-17
  9.9700000E-03    1.2814194E-16
  1.0005000E-02   -7.5860231E-17
  1.0040000E-02   -1.8827353E-16
  1.0075000E-02    2.3635184E-17
  1.0110000E-02    2.4277597E-16
  1.0145000E-02    6.1963028E-17
  1.0180000E-02   -2.7724942E-16
  1.0215000E-02   -1.8077471E-16
  1.0250000E-02    2.7412069E-16
  1.0285000E-02    3.2566604E-16
  1.0320000E-02   -2.1460947E-16
  1.0355000E-02   -4.8037499E-16
  1.0390000E-02    8.2342554E-17
  1.0425000E-02    6.1835629E-16
  1.0460000E-02    1.3182787E-16
  1.0495000E-02   -7.0402128E-16
  1.0530000E-02   -4.2504849E-16
  1.0565000E-02    6.9503225E-16
  1.0600000E-02    7.7689089E-16
  1.0635000E-02   -5.4833583E-16
  1.0670000E-02   -1.1451738E-15
  1.0705000E-02    2.2952650E-16
  1.0740000E-02    1.4654402E-15
  1.0775000E-02    2.7731054E-16
  1.0810000E-02   -1.6534356E-15
  1.0845000E-02   -9.5713442E-16
  1.0880000E-02    1.6144477E-15
  1.0915000E-02    1.7538104E-15
  1.0950000E-02   -1.2578982E-15
  1.0985000E-02   -2.5632278E-15
  1.1020000E-02    5.1813921E-16
  1.1055000E-02    3.2339519E-15
  1.1090000E-02    6.2042813E-16
  1.1125000E-02   -3.5799064E-15
  1.1160000E-02   -2.1004814E-15
  1.1195000E-02    3.4048444E-15
  1.1230000E-02    3.7738219E-15
  1.1265000E-02   -2.5366627E-15
  1.1300000E-02   -5.3909721E-15
  1.1335000E-02    8.7879674E-16
  1.1370000E-02    6.6227283E-15
  1.1405000E-02    1.5489608E-15
  1.1440000E-02   -7.0872873E-15
  1.1475000E-02   -4.5635730E-15
  1.1510000E-02    6.4091451E-15
  1.1545000E-02    7.7869314E-15
  1.1580000E-02   -4.3162029E-15
  1.1615000E-02   -1.0666826E-14
  1.1650000E-02    7.1835218E-16
  1.1685000E-02    1.2514225E-14
  1.1720000E-02    4.1889811E-15
  1.1755000E-02   -1.2612520E-14
  1.1790000E-02   -9.8757350E-15
  1.1825000E-02    1.0354414E-14
  1.1860000E-02    1.5456185E-14
  1.1895000E-02   -5.4176498E-15
  1.1930000E-02   -1.9766642E-14
  1.1965000E-02   -2.0712672E-15
  1.2000000E-02    2.1506809E-14
  1.2035000E-02    1.1392164E-14
  1.2070000E-02   -1.9478637E-14
  1.2105000E-02   -2.1179444E-14
  1.2140000E-02    1.2896726E-14
  1.2175000E-02    2.9507470E-14
  1.2210000E-02   -1.6936956E-15
  1.2245000E-02   -3.4102204E-14
  1.2280000E-02   -1.3185039E-14
  1.2315000E-02    3.2755262E-14
  1.2350000E-02    2.9677537E-14
  1.2385000E-02   -2.3807377E-14
  1.2420000E-02   -4.4650098E-14
  1.2455000E-02    6.7225820E-15
  1.2490000E-02    5.4215885E-14
  1.2525000E-02    1.7369845E-14
  1.2560000E-02   -5.4377374E-14
  1.2595000E-02   -4.5407068E-14
  1.2630000E-02    4.1822228E-14
  1.2665000E-02    7.2329661E-14
  1.2700000E-02   -1.4962510E-14
  1.2735000E-02   -9.1558448E-14
  1.2770000E-02   -2.5112347E-14
  1.2805000E-02    9.5966949E-14
  1.2840000E-02    7.4056267E-14
  1.2875000E-02   -7.9097028E-14
  1.2910000E-02   -1.2387349E-13
  1.2945000E-02    3.7079772E-14
  1.2980000E-02    1.6368427E-13
  1.3015000E-02    2.9906321E-14
  1.3050000E-02   -1.8087471E-13
  1.3085000E-02   -1.1608591E-13
  1.3120000E-02    1.6339058E-13
  1.3155000E-02    2.0963427E-13
  1.3190000E-02   -1.0230515E-13
  1.3225000E-02   -2.9290955E-13
  1.3260000E-02   -5.0475176E-15
  1.3295000E-02    3.4444249E-13
  1.3330000E-02    1.5254013E-13
  1.3365000E-02   -3.4207373E-13
  1.3400000E-02   -3.2362633E-13
  1.3435000E-02    2.6737832E-13
  1.3470000E-02    4.9151639E-13
  1.3505000E-02   -1.1042624E-13
  1.3540000E-02   -6.2113368E-13
  1.3575000E-02   -1.2526060E-13
  1.3610000E-02    6.7383132E-13
  1.3645000E-02    4.1938317E-13
  1.3680000E-02   -6.1394580E-13
  1.3715000E-02   -7.3377556E-13
  1.3750000E-02    4.1681675E-13
  1.3785000E-02    1.0146560E-12
  1.3820000E-02   -7.6836141E-14
  1.3855000E-02   -1.1985767E-12
  1.3890000E-02   -3.8586476E-13
  1.3925000E-02    1.2220617E-12
  1.3960000E-02    9.2208120E-13
  1.3995000E-02   -1.0337618E-12
  1.4030000E-02   -1.4549044E-12
  1.4065000E-02    6.0788901E-13
  1.4100000E-02    1.8872688E-12
  1.4135000E-02    4.4425726E-14
  1.4170000E-02   -2.1149141E-12
  1.4205000E-02   -8.6758015E-13
  1.4240000E-02    2.0442736E-12
  1.4275000E-02    1.7607649E-12
  1.4310000E-02   -1.6128487E-12
  1.4345000E-02   -2.5862270E-12
  1.4380000E-02    8.0785075E-13
  1.4415000E-02    3.1856958E-12
  1.4450000E-02    3.1923262E-13
  1.4485000E-02   -3.4059810E-12
  1.4520000E-02   -1.6489053E-12
  1.4555000E-02    3.1272719E-12
  1.4590000E-02    2.9999735E-12
  1.4625000E-02   -2.2933354E-12
  1.4660000E-02   -4.1512063E-12
  1.4695000E-02    9.3381357E-13
  1.4730000E-02    4.8733305E-12
  1.4765000E-02    8.2416371E-13
  1.4800000E-02   -4.9698704E-12
  1.4835000E-02   -2.7615798E-12
  1.4870000E-02    4.3186904E-12
  1.4905000E-02    4.5911591E-12
  1.4940000E-02   -2.9071647E-12
  1.4975000E-02   -5.9984539E-12
  1.5010000E-02    8.5248985E-13
  1.5045000E-02    6.6951037E-12
  1.5080000E-02    1.5997456E-12
  1.5115000E-02   -6.4756295E-12
  1.5150000E-02   -4.1018612E-12
  1.5185000E-02    5.2670403E-12
  1.5220000E-02    6.2540836E-12
  1.5255000E-02   -3.1602674E-12
  1.5290000E-02   -7.6719690E-12
  1.5325000E-02    4.1399496E-13
  1.5360000E-02    8.0604655E-12
  1.5395000E-02    2.5743210E-12
  1.5430000E-02   -7.2798035E-12
  1.5465000E-02   -5.3286798E-12
  1.5500000E-02    5.3885815E-12
  1.5535000E-02    7.3777694E-12
  1.5570000E-02   -2.6526175E-12
  1.5605000E-02   -8.3481191E-12
  1.5640000E-02   -4.8896743E-13
  1.5675001E-02    8.0462676E-12
  1.5710000E-02    3.4962144E-12
  1.5745001E-02   -6.5135735E-12
  1.5780000E-02   -5.8313966E-12
  1.5814999E-02    4.0354452E-12
  1.5850000E-02    7.0716545E-12
  1.5884999E-02   -1.0986160E-12
  1.5920000E-02   -7.0081775E-12
  1.5954999E-02   -1.7013753E-12
  1.5990000E-02    5.7056777E-12
  1.6024999E-02    3.7852430E-12
  1.6060000E-02   -3.5056326E-12
  1.6094999E-02   -4.7229764E-12
  1.6130000E-02    9.6565659E-13
  1.6164999E-02    4.3449510E-12
  1.6200000E-02    1.2589701E-12
  1.6235000E-02   -2.8000072E-12
  1.6270000E-02   -2.5683453E-12
  1.6305000E-02    5.4005406E-13
  1.6340001E-02    2.5695225E-12
  1.6375000E-02    1.7710142E-12
  1.6410001E-02   -1.1892421E-12
  1.6445000E-02   -3.4075774E-12
  1.6480001E-02   -1.2829684E-12
  1.6515000E-02    3.7599962E-12
  1.6550001E-02    4.2377044E-12
  1.6585000E-02   -2.4992870E-12
  1.6620001E-02   -6.8744233E-12
  1.6655000E-02   -3.1836637E-13
  1.6690001E-02    8.3858224E-12
  1.6725000E-02    4.2354388E-12
  1.6759999E-02   -8.1563419E-12
  1.6795000E-02   -8.4769518E-12
  1.6829999E-02    5.9210219E-12
  1.6865000E-02    1.2111487E-11
  1.6899999E-02   -1.8516902E-12
  1.6935000E-02   -1.4262240E-11
  1.6969999E-02   -3.4643729E-12
  1.7005000E-02    1.4306712E-11
  1.7039999E-02    9.1429503E-12
  1.7075000E-02   -1.2019616E-11
  1.7109999E-02   -1.4194211E-11
  1.7145000E-02    7.6149920E-12
  1.7180000E-02    1.7724247E-11
  1.7215000E-02   -1.6979652E-12
  1.7250000E-02   -1.9116694E-11
  1.7285001E-02   -4.8766325E-12
  1.7320000E-02    1.8136560E-11
  1.7355001E-02    1.1191467E-11
  1.7390000E-02   -1.4935502E-11
  1.7425001E-02   -1.6447258E-11
  1.7460000E-02    9.9593320E-12
  1.7495001E-02    2.0069309E-11
  1.7530000E-02   -3.8251294E-12
  1.7565001E-02   -2.1748539E-11
  1.7600000E-02   -2.8052582E-12
  1.7635001E-02    2.1419864E-11
  1.7670000E-02    9.3259003E-12
  1.7704999E-02   -1.9193218E-11
  1.7740000E-02   -1.5238999E-11
  1.7774999E-02    1.5254221E-11
  1.7810000E-02    2.0111489E-11
  1.7844999E-02   -9.8416466E-12
  1.7880000E-02   -2.3534501E-11
  1.7914999E-02    3.2707816E-12
  1.7950000E-02    2.5106495E-11
  1.7984999E-02    4.0037938E-12
  1.8020000E-02   -2.4494382E-11
  1.8054999E-02   -1.1386289E-11
  1.8090000E-02    2.1460259E-11
  1.8124999E-02    1.8070701E-11
  1.8160000E-02   -1.6036464E-11
  1.8195000E-02   -2.3146691E-11
  1.8230001E-02    8.6134606E-12
  1.8265000E-02    2.5723137E-11
  1.8300001E-02   -4.5881383E-14
  1.8335000E-02   -2.5246917E-11
  1.8370001E-02   -8.5777383E-12
  1.8405000E-02    2.1504796E-11
  1.8440001E-02    1.5925377E-11
  1.8475000E-02   -1.4898386E-11
  1.8510001E-02   -2.0799956E-11
  1.8545000E-02    6.3167306E-12
  1.8580001E-02    2.2230945E-11
  1.8615000E-02    2.7247039E-12
  1.8650001E-02   -2.0075797E-11
  1.8685000E-02   -1.0803424E-11
  1.8719999E-02    1.4610002E-11
  1.8755000E-02    1.6374704E-11
  1.8789999E-02   -7.0071219E-12
  1.8825000E-02   -1.8599299E-11
  1.8859999E-02   -1.4328056E-12
  1.8895000E-02    1.6822292E-11
  1.8929999E-02    8.5861917E-12
  1.8965000E-02   -1.1912625E-11
  1.8999999E-02   -1.3262814E-11
  1.9035000E-02    4.7391964E-12
  1.9069999E-02    1.4059935E-11
  1.9105000E-02    2.4840436E-12
  1.9140000E-02   -1.1363832E-11
  1.9175000E-02   -8.5674141E-12
  1.9210000E-02    5.1012510E-12
  1.9245001E-02    1.1017291E-11
  1.9280000E-02    2.1378847E-12
  1.9315001E-02   -1.0121390E-11
  1.9350000E-02   -9.4216926E-12
  1.9385001E-02    5.0383799E-12
  1.9420000E-02    1.3581398E-11
  1.9455001E-02    1.3531557E-12
  1.9490000E-02   -1.5288413E-11
  1.9525001E-02   -9.0610046E-12
  1.9560000E-02    1.2481634E-11
  1.9595001E-02    1.3978639E-11
  1.9630000E-02   -8.6517590E-12
  1.9664999E-02   -1.7445967E-11
  1.9700000E-02    2.9089010E-12
  1.9734999E-02    1.6414902E-11
  1.9770000E-02   -5.6248501E-13
  1.9804999E-02   -1.6061090E-11
  1.9840000E-02   -1.7206816E-12
  1.9874999E-02    1.3741021E-11
  1.9910000E-02   -5.5004216E-13
  1.9944999E-02   -1.6484685E-11
  1.9980000E-02   -3.8504424E-14
  2.0014999E-02    1.8864925E-11
  2.0050000E-02   -6.2395781E-13
  2.0085000E-02   -2.6956968E-11
  2.0120000E-02   -7.2082396E-12
  2.0155000E-02    2.9920316E-11
  2.0190001E-02    1.5369586E-11
  2.0225000E-02   -3.3782494E-11
  2.0260001E-02   -3.2664385E-11
  2.0295000E-02    2.4251561E-11
  2.0330001E-02    4.3205394E-11
  2.0365000E-02   -1.3247515E-11
  2.0400001E-02   -5.5894969E-11
  2.0435000E-02   -1.1901224E-11
  2.0470001E-02    5.1321881E-11
  2.0505000E-02    3.0734290E-11
  2.0540001E-02   -4.4604861E-11
  2.0575000E-02   -5.5734934E-11
  2.0609999E-02    1.7414729E-11
  2.0645000E-02    6.1021348E-11
  2.0679999E-02    5.1769361E-12
  2.0715000E-02   -6.4218526E-11
  2.0749999E-02   -3.8613716E-11
  2.0785000E-02    4.1668398E-11
  2.0819999E-02    5.0005274E-11
  2.0855000E-02   -2.5840755E-11
  2.0889999E-02   -6.4976892E-11
  2.0925000E-02   -7.7883368E-12
  2.0959999E-02    5.1070863E-11
  2.0995000E-02    2.0073838E-11
  2.1029999E-02   -4.4080531E-11
  2.1065000E-02   -3.9041510E-11
  2.1100000E-02    1.5791224E-11
  2.1135001E-02    2.6360726E-11
  2.1170000E-02   -1.3432383E-11
  2.1205001E-02   -2.7622505E-11
  2.1240000E-02   -7.8893592E-13
  2.1275001E-02    7.4207749E-12
  2.1310000E-02   -1.5096684E-11
  2.1345001E-02   -1.5018063E-11
  2.1380000E-02    1.2114397E-11
  2.1415001E-02    6.5266963E-12
  2.1450000E-02   -3.4321147E-11
  2.1485001E-02   -3.5014835E-11
  2.1520000E-02    1.9681163E-11
  2.1555001E-02    4.0708957E-11
  2.1590000E-02   -1.5430473E-11
  2.1624999E-02   -6.1435954E-11
  2.1660000E-02   -2.0123311E-11
  2.1694999E-02    4.4169557E-11
  2.1730000E-02    2.9707261E-11
  2.1764999E-02   -3.8884406E-11
  2.1800000E-02   -5.5772668E-11
  2.1834999E-02   -2.2116865E-13
  2.1870000E-02    4.3814275E-11
  2.1904999E-02    1.9848801E-11
  2.1940000E-02   -3.3211604E-11
  2.1974999E-02   -4.8902590E-11
  2.2010000E-02   -1.2435350E-11
  2.2045000E-02    3.3544358E-11
  2.2080000E-02    3.4065417E-11
  2.2115000E-02   -1.8017053E-11
  2.2150001E-02   -5.7990390E-11
  2.2185000E-02   -2.2017990E-11
  2.2220001E-02    5.0159626E-11
  2.2255000E-02    5.2063378E-11
  2.2290001E-02   -2.8534354E-11
  2.2325000E-02   -7.3680714E-11
  2.2360001E-02   -1.0579256E-11
  2.2395000E-02    6.9196593E-11
  2.2430001E-02    4.7269511E-11
  2.2465000E-02   -4.1066980E-11
  2.2500001E-02   -6.6483444E-11
  2.2535000E-02    7.6826355E-13
  2.2569999E-02    6.1804430E-11
  2.2605000E-02    3.9970732E-11
  2.2639999E-02   -2.5741952E-11
  2.2675000E-02   -4.8094161E-11
  2.2709999E-02    1.6152234E-13
  2.2745000E-02    6.0464092E-11
  2.2779999E-02    5.6475047E-11
  2.2815000E-02   -1.1135683E-11
  2.2849999E-02   -5.2999594E-11
  2.2885000E-02   -5.6278888E-12
  2.2919999E-02    6.9481552E-11
  2.2955000E-02    6.5817483E-11
  2.2990000E-02   -1.0641960E-11
  2.3025000E-02   -5.1965605E-11
  2.3060000E-02   -1.0579344E-11
  2.3095001E-02    4.5011189E-11
  2.3130000E-02    4.6473651E-11
  2.3165001E-02    8.1974748E-12
  2.3200000E-02   -2.1167528E-11
  2.3235001E-02   -1.3994793E-11
  2.3270000E-02    3.2999905E-11
  2.3305001E-02    8.2365767E-11
  2.3340000E-02    6.2946502E-11
  2.3375001E-02   -2.8235955E-11
  2.3410000E-02   -7.3724984E-11
  2.3445001E-02    9.1383047E-12
  2.3480000E-02    1.1203323E-10
  2.3514999E-02    7.4510828E-11
  2.3550000E-02   -6.1374288E-11
  2.3584999E-02   -1.0158225E-10
  2.3620000E-02    7.5724193E-12
  2.3654999E-02    1.0792545E-10
  2.3690000E-02    6.8352046E-11
  2.3724999E-02   -4.9454014E-11
  2.3760000E-02   -9.5702585E-11
  2.3794999E-02   -7.3966380E-12
  2.3830000E-02    1.2953037E-10
  2.3864999E-02    1.4696618E-10
  2.3900000E-02   -1.7471510E-11
  2.3934999E-02   -1.7427713E-10
  2.3970000E-02   -8.0492127E-11
  2.4005000E-02    1.6264401E-10
  2.4040001E-02    1.7049145E-10
  2.4075000E-02   -1.2893857E-10
  2.4110001E-02   -2.9619407E-10
  2.4145000E-02   -4.4374452E-11
  2.4180001E-02    2.5283450E-10
  2.4215000E-02    1.2449695E-10
  2.4250001E-02   -2.2855569E-10
  2.4285000E-02   -2.4774838E-10
  2.4320001E-02    8.8619327E-11
  2.4355000E-02    2.5490934E-10
  2.4390001E-02    2.0512748E-11
  2.4425000E-02   -2.3808461E-10
  2.4460001E-02   -1.6387065E-10
  2.4495000E-02    8.0722450E-11
  2.4529999E-02    1.2876832E-10
  2.4565000E-02   -6.5450971E-11
  2.4599999E-02   -2.2719499E-10
  2.4635000E-02   -1.5844250E-10
  2.4669999E-02    2.9774003E-11
  2.4705000E-02    8.4897638E-11
  2.4739999E-02   -5.6209273E-11
  2.4775000E-02   -1.8669566E-10
  2.4809999E-02   -1.1901238E-10
  2.4845000E-02    5.0701006E-11
  2.4879999E-02    9.1049307E-11
  2.4915000E-02   -3.5588039E-11
  2.4950000E-02   -1.5160520E-10
  2.4985000E-02   -1.2578155E-10
  2.5020000E-02   -1.4917010E-11
  2.5055001E-02    3.5688154E-11
  2.5090000E-02   -4.8564767E-11
  2.5125001E-02   -1.8231994E-10
  2.5160000E-02   -1.8446042E-10
  2.5195001E-02   -1.3893140E-11
  2.5230000E-02    1.1142261E-10
  2.5265001E-02   -4.8750344E-12
  2.5300000E-02   -2.0548442E-10
  2.5335001E-02   -1.7486504E-10
  2.5370000E-02    6.3780349E-11
  2.5405001E-02    1.5144666E-10
  2.5440000E-02   -5.3482534E-11
  2.5474999E-02   -2.3967769E-10
  2.5510000E-02   -1.2069447E-10
  2.5544999E-02    1.1919690E-10
  2.5580000E-02    1.1408454E-10
  2.5614999E-02   -1.1663974E-10
  2.5650000E-02   -2.0515292E-10
  2.5684999E-02   -9.3350692E-12
  2.5720000E-02    1.6890032E-10
  2.5754999E-02    6.5339019E-11
  2.5790000E-02   -1.2444216E-10
  2.5824999E-02   -8.0971833E-11
  2.5860000E-02    9.8392870E-11
  2.5895000E-02    9.5675315E-11
  2.5930000E-02   -5.3858921E-11
  2.5965000E-02   -6.7108478E-11
  2.6000001E-02    4.0554272E-11
  2.6035000E-02    3.3083383E-11
  2.6070001E-02   -4.8011421E-11
  2.6105000E-02    1.6090925E-11
  2.6140001E-02    1.4781197E-10
  2.6175000E-02    1.0824814E-10
  2.6210001E-02   -1.3818333E-11
  2.6245000E-02    4.3493875E-11
  2.6280001E-02    1.8442434E-10
  2.6315000E-02    1.1881233E-10
  2.6350001E-02   -5.6050751E-11
  2.6385000E-02   -2.8701081E-11
  2.6419999E-02    1.0628907E-10
  2.6455000E-02    4.4445000E-11
  2.6489999E-02   -1.0153137E-10
  2.6525000E-02   -3.8777186E-11
  2.6559999E-02    1.0269782E-10
  2.6595000E-02    5.2358833E-11
  2.6629999E-02   -4.4300723E-11
  2.6665000E-02    5.5910204E-11
  2.6699999E-02    1.8777688E-10
  2.6735000E-02    1.1461553E-10
  2.6769999E-02   -1.3883156E-12
  2.6805000E-02    6.1401710E-11
  2.6839999E-02    1.3621175E-10
  2.6875000E-02    2.2185346E-11
  2.6910000E-02   -8.3136956E-11
  2.6945001E-02   -3.0812464E-12
  2.6980000E-02    1.0789972E-12