 -4.8000002E-03    1.0000000E-24
 -4.7650002E-03    1.0000002E-24
 -4.7300002E-03    1.0000001E-24
 -4.6950001E-03    1.0000000E-24
 -4.6600001E-03    1.0000002E-24
 -4.6250001E-03    1.0000003E-24
 -4.5900000E-03    1.0000001E-24
 -4.5550000E-03    1.0000001E-24
 -4.5200000E-03    1.0000003E-24
 -4.4849999E-03    1.0000000E-24
 -4.4499999E-03    9.9999982E-25
 -4.4149999E-03    1.0000003E-24
 -4.3799998E-03    1.0000004E-24
 -4.3449998E-03    9.9999972E-25
 -4.3100002E-03    1.0000000E-24
 -4.2750002E-03    1.0000005E-24
 -4.2400002E-03    1.0000003E-24
 -4.2050001E-03    9.9999982E-25
 -4.1700001E-03    1.0000003E-24
 -4.1350001E-03    1.0000004E-24
 -4.1000000E-03    9.9999972E-25
 -4.0650000E-03    9.9999963E-25
 -4.0300000E-03    1.0000000E-24
 -3.9949999E-03    1.0000001E-24
 -3.9599999E-03    1.0000001E-24
 -3.9249999E-03    1.0000004E-24
 -3.8900001E-03    1.0000002E-24
 -3.8550000E-03    9.9999972E-25
 -3.8200000E-03    1.0000001E-24
 -3.7849999E-03    1.0000002E-24
 -3.7499999E-03    1.0000002E-24
 -3.7150001E-03    1.0000003E-24
 -3.6800001E-03    9.9999982E-25
 -3.6450000E-03    9.9999992E-25
 -3.6100000E-03    9.9999972E-25
 -3.5750000E-03    1.0000002E-24
 -3.5399999E-03    1.0000033E-24
 -3.5049999E-03    9.9999627E-25
 -3.4700001E-03    1.0000020E-24
 -3.4350001E-03    1.0000176E-24
 -3.4000000E-03    9.9996363E-25
 -3.3650000E-03    9.9999312E-25
 -3.3300000E-03    1.0002427E-24
 -3.2949999E-03    9.9946409E-25
 -3.2599999E-03    9.9927900E-25
 -3.2250001E-03    1.0008264E-24
 -3.1900001E-03    1.0052931E-24
 -3.1550000E-03    9.9715125E-25
 -3.1200000E-03    9.8414628E-25
 -3.0850000E-03    9.9662596E-25
 -3.0499999E-03    1.0338580E-24
 -3.0149999E-03    1.0080599E-24
 -2.9800001E-03    1.0475732E-24
 -2.9450001E-03    1.0888028E-24
 -2.9100000E-03    8.8379391E-25
 -2.8750000E-03    6.7002601E-25
 -2.8400000E-03    7.9451418E-25
 -2.8049999E-03    5.2571357E-25
 -2.7699999E-03    1.4542236E-24
 -2.7350001E-03    1.3863622E-24
 -2.7000001E-03    4.0097776E-24
 -2.6650000E-03    2.7188497E-24
 -2.6300000E-03    1.7535139E-25
 -2.5950000E-03    5.8019903E-24
 -2.5599999E-03   -2.0281647E-24
 -2.5249999E-03   -2.8706219E-23
 -2.4900001E-03   -9.4889741E-25
 -2.4550001E-03    3.3179938E-23
 -2.4200000E-03    5.0251023E-23
 -2.3850000E-03   -1.1569169E-22
 -2.3500000E-03    6.9384154E-23
 -2.3149999E-03    1.2235822E-22
 -2.2799999E-03   -1.4268213E-22
 -2.2450001E-03    4.9565469E-23
 -2.2100001E-03    1.7365034E-22
 -2.1750000E-03   -5.8145551E-26
 -2.1400000E-03   -6.8976407E-22
 -2.1050000E-03    8.3374964E-22
 -2.0699999E-03    1.0126505E-21
 -2.0349999E-03    1.0467975E-22
 -2.0000001E-03    2.1879361E-21
 -1.9650001E-03    4.2842644E-22
 -1.9300000E-03   -2.2175082E-21
 -1.8950000E-03   -2.5672413E-23
 -1.8600000E-03    3.3324581E-21
 -1.8250000E-03    3.1949888E-21
 -1.7900000E-03   -7.9360543E-22
 -1.7550000E-03   -6.7181206E-21
 -1.7199999E-03    1.1701745E-21
 -1.6850000E-03    1.1712237E-20
 -1.6500000E-03    1.3285629E-20
 -1.6150000E-03   -9.0149455E-21
 -1.5800000E-03   -1.9047376E-20
 -1.5450000E-03   -8.6021444E-21
 -1.5100000E-03   -9.3475739E-21
 -1.4750001E-03   -3.0859881E-21
 -1.4400000E-03    3.7672910E-20
 -1.4050000E-03    4.0586130E-21
 -1.3700000E-03   -2.7545492E-20
 -1.3350000E-03   -2.8066154E-20
 -1.3000000E-03    8.6251108E-21
 -1.2650000E-03   -6.7215695E-20
 -1.2300001E-03   -4.2933546E-20
 -1.1950000E-03    4.0547864E-20
 -1.1600000E-03    1.6666092E-19
 -1.1250000E-03   -4.4841904E-20
 -1.0900000E-03   -5.2626019E-20
 -1.0550000E-03    3.3995921E-20
 -1.0200000E-03   -6.4926538E-19
 -9.8500005E-04   -4.5981978E-19
 -9.5000002E-04    1.6475853E-18
 -9.1499998E-04    1.6327168E-18
 -8.8000001E-04   -1.7997105E-18
 -8.4499997E-04   -1.3762556E-18
 -8.1000000E-04    3.0130622E-18
 -7.7500002E-04    1.0051557E-18
 -7.3999999E-04   -5.0470272E-18
 -7.0500001E-04   -1.2155421E-18
 -6.6999998E-04    8.0699732E-18
 -6.3500000E-04    3.4069224E-18
 -6.0000003E-04   -9.5716923E-18
 -5.6499999E-04   -1.9258756E-18
 -5.3000002E-04    1.5234204E-17
 -4.9499999E-04    1.3314750E-18
 -4.6000001E-04   -2.1643422E-17
 -4.2500001E-04    4.1806866E-18
 -3.9000000E-04    3.2975836E-17
 -3.5500000E-04   -8.1795134E-18
 -3.1999999E-04   -3.8801752E-17
 -2.8499999E-04    3.0513856E-17
 -2.5000001E-04    5.0700031E-17
 -2.1499999E-04   -4.8675575E-17
 -1.8000000E-04   -5.0976967E-17
 -1.4500000E-04    9.2774414E-17
 -1.1000000E-04    5.2648190E-17
 -7.5000004E-05   -1.3934055E-16
 -3.9999999E-05   -3.5819405E-17
 -4.9999999E-06    2.0701631E-16
  2.9999999E-05    9.7041967E-18
  6.5000000E-05   -2.6965447E-16
  9.9999997E-05    5.5936732E-17
  1.3499999E-04    3.4125123E-16
  1.7000000E-04   -1.4686969E-16
  2.0500000E-04   -4.4846779E-16
  2.3999999E-04    2.6131199E-16
  2.7500000E-04    6.0586991E-16
  3.1000000E-04   -3.4744966E-16
  3.4500001E-04   -7.5370585E-16
  3.8000001E-04    4.7876017E-16
  4.1499999E-04    1.0097919E-15
  4.4999999E-04   -5.4403359E-16
  4.8500000E-04   -1.2113931E-15
  5.2000000E-04    4.8083075E-16
  5.5499998E-04    1.2016353E-15
  5.9000001E-04   -4.2235696E-16
  6.2499999E-04   -1.1202395E-15
  6.6000002E-04    2.9418468E-16
  6.9500000E-04    6.8908359E-16
  7.3000003E-04   -5.6327420E-17
  7.6500000E-04    3.2123097E-16
  7.9999998E-04   -5.2728870E-17
  8.3500001E-04   -1.7688645E-15
  8.6999999E-04   -1.0753892E-16
  9.0500002E-04    3.6284071E-15
  9.4000000E-04    8.4703348E-16
  9.7499997E-04   -5.9077215E-15
  1.0100000E-03   -2.7935589E-15
  1.0450000E-03    8.1130586E-15
  1.0800000E-03    6.2534727E-15
  1.1150000E-03   -9.6888778E-15
  1.1500000E-03   -1.0892714E-14
  1.1849999E-03    9.9944899E-15
  1.2200000E-03    1.6299198E-14
  1.2550000E-03   -8.9170089E-15
  1.2900000E-03   -2.2250476E-14
  1.3250000E-03    5.5295183E-15
  1.3600000E-03    2.7079660E-14
  1.3950000E-03    8.5002112E-16
  1.4299999E-03   -2.8278834E-14
  1.4650000E-03   -9.8136712E-15
  1.5000000E-03    2.3613922E-14
  1.5350000E-03    2.0057039E-14
  1.5700000E-03   -1.1761975E-14
  1.6050000E-03   -2.9862553E-14
  1.6400000E-03   -7.1975998E-15
  1.6749999E-03    3.8356325E-14
  1.7100000E-03    3.3614635E-14
  1.7450000E-03   -4.4275439E-14
  1.7800000E-03   -6.8219004E-14
  1.8150000E-03    4.5371587E-14
  1.8500000E-03    1.1092356E-13
  1.8850000E-03   -3.9605346E-14
  1.9200000E-03   -1.5992333E-13
  1.9550000E-03    2.9846365E-14
  1.9900000E-03    2.1957734E-13
  2.0250001E-03   -1.5655607E-14
  2.0600001E-03   -2.9596280E-13
  2.0949999E-03   -1.1370990E-14
  2.1299999E-03    3.8638735E-13
  2.1650000E-03    6.1140349E-14
  2.2000000E-03   -4.7724140E-13
  2.2350000E-03   -1.3909133E-13
  2.2700001E-03    5.5121549E-13
  2.3050001E-03    2.5430794E-13
  2.3399999E-03   -5.7415558E-13
  2.3749999E-03   -3.9632834E-13
  2.4100000E-03    5.0206080E-13
  2.4450000E-03    5.1831223E-13
  2.4800000E-03   -3.0523514E-13
  2.5150001E-03   -5.3907735E-13
  2.5500001E-03   -6.9588691E-15
  2.5849999E-03    3.5979775E-13
  2.6199999E-03    3.9183224E-13
  2.6550000E-03    6.7979564E-14
  2.6900000E-03   -7.7881950E-13
  2.7250000E-03   -7.8621511E-13
  2.7600001E-03    1.0510566E-12
  2.7950001E-03    1.7720347E-12
  2.8299999E-03   -1.0866748E-12
  2.8649999E-03   -2.9050803E-12
  2.9000000E-03    7.8315653E-13
  2.9350000E-03    4.0807245E-12
  2.9700000E-03    6.7758299E-14
  3.0050001E-03   -5.0848757E-12
  3.0400001E-03   -1.2503994E-12
  3.0749999E-03    5.9130760E-12
  3.1099999E-03    2.6671066E-12
  3.1450000E-03   -6.3309588E-12
  3.1800000E-03   -4.2438123E-12
  3.2150000E-03    6.0582706E-12
  3.2500001E-03    5.7350262E-12
  3.2850001E-03   -5.0042700E-12
  3.3199999E-03   -6.6639428E-12
  3.3549999E-03    2.9364909E-12
  3.3900000E-03    6.6071103E-12
  3.4250000E-03   -5.2010821E-13
  3.4600000E-03   -4.9154244E-12
  3.4950001E-03   -1.3855531E-12
  3.5300001E-03    2.0574807E-12
  3.5649999E-03    2.8489847E-12
  3.5999999E-03    1.1059118E-12
  3.6350000E-03   -2.9845729E-12
  3.6700000E-03   -5.2831832E-12
  3.7050000E-03    1.4494156E-12
  3.7400001E-03    1.0178969E-11
  3.7750001E-03    3.1989129E-12
  3.8099999E-03   -1.2763872E-11
  3.8449999E-03   -7.8979280E-12
  3.8800000E-03    1.4734734E-11
  3.9149998E-03    1.1699372E-11
  3.9499998E-03   -1.7704484E-11
  3.9849998E-03   -1.3532031E-11
  4.0199999E-03    1.8110591E-11
  4.0549999E-03    1.4267472E-11
  4.0899999E-03   -1.2876014E-11
  4.1250000E-03   -3.7402017E-12
  4.1600000E-03    1.0950655E-11
  4.1950000E-03   -3.3016766E-12
  4.2300001E-03   -8.4377106E-12
  4.2650001E-03   -6.5800460E-12
  4.3000001E-03   -1.2773436E-11
  4.3350002E-03   -2.6305175E-12
  4.3700002E-03    2.2845155E-11
  4.4049998E-03    1.7877862E-11
  4.4399998E-03   -5.7219503E-12
  4.4749998E-03   -2.2385866E-11
  4.5099999E-03   -9.7759526E-12
  4.5449999E-03    1.9146447E-11
  4.5799999E-03    6.3379345E-12
  4.6150000E-03   -3.2271481E-11
  4.6500000E-03    1.6466117E-11
  4.6850001E-03    7.6207318E-11
  4.7200001E-03   -1.8076063E-11
  4.7550001E-03   -4.9241416E-11
  4.7900002E-03    4.3451485E-11
  4.8250002E-03    5.9357727E-11
  4.8600002E-03   -7.9086022E-11
  4.8949998E-03   -1.0106055E-10
  4.9299998E-03    7.2297508E-11
  4.9649999E-03    4.6782002E-11
  4.9999999E-03   -1.3043935E-10
  5.0349999E-03    5.6836334E-11
  5.0700000E-03    2.6892505E-10
  5.1050000E-03   -7.0973248E-11
  5.1400000E-03   -3.5809672E-10
  5.1750001E-03    2.2600279E-11
  5.2100001E-03    1.9809926E-10
  5.2450001E-03   -6.0742085E-11
  5.2800002E-03    6.0274459E-11
  5.3150002E-03    2.8035441E-10
  5.3500002E-03   -1.8232098E-11
  5.3849998E-03   -2.3879979E-10
  5.4199998E-03   -1.2179609E-10
  5.4549999E-03    1.8248611E-11
  5.4899999E-03    2.9684874E-10
  5.5249999E-03    2.1722821E-12
  5.5600000E-03   -5.5678789E-10
  5.5950000E-03    3.9241953E-11
  5.6300000E-03    6.1132455E-10
  5.6650001E-03   -6.1138405E-10
  5.7000001E-03   -8.6727575E-10
  5.7350001E-03    1.0558027E-09
  5.7700002E-03    1.3132940E-09
  5.8050002E-03   -6.0871835E-10
  5.8400002E-03   -6.8514938E-10
  5.8749998E-03    5.9235333E-10
  5.9099998E-03   -9.2814777E-11
  5.9449999E-03   -1.2297513E-09
  5.9799999E-03    3.8523863E-12
  6.0149999E-03    9.9993480E-10
  6.0500000E-03    9.9005477E-11
  6.0850000E-03   -5.4566568E-10
  6.1200000E-03    2.7556044E-10
  6.1550001E-03   -1.0351730E-10
  6.1900001E-03   -7.4505363E-10
  6.2250001E-03   -2.2245179E-10
  6.2600002E-03    8.6629703E-10
  6.2950002E-03    1.3750378E-09
  6.3299998E-03    2.5215779E-10
  6.3649998E-03   -1.4297558E-09
  6.3999998E-03   -1.1386083E-09
  6.4349999E-03    8.3832513E-10
  6.4699999E-03    6.7850153E-10
  6.5049999E-03   -6.4762673E-10
  6.5400000E-03   -2.7625709E-11
  6.5750000E-03    1.1767775E-09
  6.6100000E-03    4.9331339E-10
  6.6450001E-03   -1.1239469E-09
  6.6800001E-03   -1.0631387E-09
  6.7150001E-03    7.3387207E-10
  6.7500002E-03    6.7931105E-10
  6.7850002E-03   -8.8377644E-10
  6.8199998E-03   -9.5296819E-11
  6.8549998E-03    8.4233831E-10
  6.8899998E-03   -8.8101543E-10
  6.9249999E-03   -1.2662930E-09
  6.9599999E-03    6.9946843E-10
  6.9949999E-03    1.2609275E-09
  7.0300000E-03   -7.5345014E-10
  7.0650000E-03   -1.1340208E-09
  7.1000000E-03    6.6158146E-10
  7.1350001E-03    4.4815657E-10
  7.1700001E-03   -1.4233331E-09
  7.2050001E-03   -4.8117060E-10
  7.2400002E-03    6.0406768E-10
  7.2750002E-03   -1.0988420E-09
  7.3099998E-03   -1.3011483E-09
  7.3449998E-03    6.0954658E-10
  7.3799998E-03    8.4873691E-10
  7.4149999E-03    6.2809080E-10
  7.4499999E-03    1.7825995E-09
  7.4850000E-03    8.3275936E-10
  7.5200000E-03   -2.3696962E-09
  7.5550000E-03   -2.4421922E-09
  7.5900001E-03    3.0861674E-10
  7.6250001E-03    6.9616299E-11
  7.6600001E-03   -2.1478301E-09
  7.6950002E-03   -8.5521462E-10
  7.7300002E-03    1.9172819E-09
  7.7650002E-03    8.8098823E-10
  7.7999998E-03   -1.7989884E-09
  7.8349998E-03   -1.4111978E-09
  7.8699999E-03    7.8174039E-10
  7.9049999E-03    1.2527274E-09
  7.9399999E-03   -2.0725169E-10
  7.9750000E-03   -4.7408433E-10
  8.0100000E-03    1.5004274E-09
  8.0450000E-03    1.0477064E-09
  8.0800001E-03   -2.8092288E-09
  8.1150001E-03   -2.6000224E-09
  8.1500001E-03    1.2565788E-09
  8.1850002E-03    3.3526859E-10
  8.2200002E-03   -2.1033424E-09
  8.2550002E-03    6.0186017E-10
  8.2900003E-03    1.4916178E-09
  8.3250003E-03   -1.7129533E-09
  8.3600003E-03   -1.6283026E-09
  8.3950004E-03    2.0678128E-09
  8.4300004E-03    2.3045870E-09
  8.4650004E-03   -1.2955176E-09
  8.5000005E-03   -2.1055837E-09
  8.5349996E-03    8.0568624E-10
  8.5699996E-03    9.3146069E-10
  8.6049996E-03   -2.5054792E-09
  8.6399997E-03   -1.2724463E-09
  8.6749997E-03    2.6816216E-09
  8.7099997E-03    1.7209074E-09
  8.7449998E-03   -4.7893894E-10
  8.7799998E-03    8.3963742E-10
  8.8149998E-03    1.6873531E-09
  8.8499999E-03    6.8107142E-10
  8.8849999E-03   -1.7507508E-10
  8.9199999E-03   -1.0449559E-10
  8.9550000E-03    1.5565161E-09
  8.9900000E-03    1.9163326E-09
  9.0250000E-03   -1.3185464E-09
  9.0600001E-03   -1.2745360E-09
  9.0950001E-03    2.8069589E-09
  9.1300001E-03    2.0482767E-09
  9.1650002E-03   -1.7526912E-09
  9.2000002E-03   -1.1722674E-09
  9.2350002E-03    1.4482122E-10
  9.2700003E-03   -3.5742465E-10
  9.3050003E-03    6.4475630E-10
  9.3400003E-03    1.5742647E-09
  9.3750004E-03    3.9516482E-10
  9.4100004E-03   -2.9628797E-10
  9.4450004E-03    1.7013788E-10
  9.4799995E-03    5.5927180E-10
  9.5149996E-03    1.8206161E-09
  9.5499996E-03    1.4230684E-09
  9.5849996E-03   -6.3955413E-10
  9.6199997E-03    6.8269679E-10
  9.6549997E-03    2.3874431E-09
  9.6899997E-03   -1.1520751E-09
  9.7249998E-03   -2.9437195E-09
  9.7599998E-03    6.7643768E-10
  9.7949998E-03    1.3904315E-09
  9.8299999E-03   -1.0372311E-09
  9.8649999E-03   -8.9608355E-11
  9.8999999E-03    1.5528296E-09
  9.9350000E-03    7.4893486E-10
  9.9700000E-03   -1.4138235E-10
  1.0005000E-02   -8.7118107E-10
  1.0040000E-02   -5.9845634E-10
  1.0075000E-02    1.5602329E-09
  1.0110000E-02    1.0049831E-09
  1.0145000E-02   -1.9401056E-09
  1.0180000E-02   -1.3068323E-09
  1.0215000E-02    7.1668094E-10
  1.0250000E-02   -4.7393944E-10
  1.0285000E-02   -2.0015960E-09
  1.0320000E-02   -9.7846231E-10
  1.0355000E-02    8.9857410E-10
  1.0390000E-02    9.7784014E-10
  1.0425000E-02   -1.1649919E-09
  1.0460000E-02   -1.8620305E-09
  1.0495000E-02    3.3294972E-10
  1.0530000E-02    1.6463055E-09
  1.0565000E-02    1.2131709E-09
  1.0600000E-02   -2.3863936E-10
  1.0635000E-02   -2.9336853E-09
  1.0670000E-02   -2.4435356E-09
  1.0705000E-02    7.5500506E-10
  1.0740000E-02   -1.1091714E-09
  1.0775000E-02   -3.6403982E-09
  1.0810000E-02    4.9271204E-10
  1.0845000E-02    2.7897531E-09
  1.0880000E-02   -3.2832481E-10
  1.0915000E-02   -9.6713781E-10
  1.0950000E-02   -1.1637636E-09
  1.0985000E-02   -2.8875760E-09
  1.1020000E-02    3.0026678E-10
  1.1055000E-02    2.9102125E-09
  1.1090000E-02   -1.7129494E-09
  1.1125000E-02   -3.8634993E-09
  1.1160000E-02   -5.2908566E-10
  1.1195000E-02   -4.4522705E-10
  1.1230000E-02   -1.4619512E-09
  1.1265000E-02    8.4870100E-10
  1.1300000E-02    1.3706690E-09
  1.1335000E-02   -1.0511558E-09
  1.1370000E-02   -2.2478119E-09
  1.1405000E-02   -1.5666419E-09
  1.1440000E-02    3.8258471E-10
  1.1475000E-02    1.1961693E-09
  1.1510000E-02   -1.4820967E-09
  1.1545000E-02   -2.6906690E-09
  1.1580000E-02    3.0527816E-10
  1.1615000E-02    1.1200348E-09
  1.1650000E-02   -8.2058266E-10
  1.1685000E-02    2.9269456E-10
  1.1720000E-02    1.8815853E-09
  1.1755000E-02    1.4116525E-10
  1.1790000E-02   -1.3555925E-09
  1.1825000E-02   -1.8036399E-09
  1.1860000E-02   -2.3245159E-09
  1.1895000E-02    5.0294193E-13
  1.1930000E-02    2.2120372E-09
  1.1965000E-02   -5.1376414E-10
  1.2000000E-02   -1.5480807E-09
  1.2035000E-02    2.2551159E-09
  1.2070000E-02    2.1970898E-09
  1.2105000E-02   -1.2824072E-09
  1.2140000E-02   -9.3478017E-11
  1.2175000E-02    2.2456796E-09
  1.2210000E-02   -4.0926616E-11
  1.2245000E-02   -2.2201765E-09
  1.2280000E-02    7.2518297E-11
  1.2315000E-02    2.3394966E-09
  1.2350000E-02   -6.1857824E-10
  1.2385000E-02   -3.2390381E-09
  1.2420000E-02    1.6415661E-09
  1.2455000E-02    4.5690416E-09
  1.2490000E-02   -2.1106286E-09
  1.2525000E-02   -4.1181640E-09
  1.2560000E-02    2.5518971E-09
  1.2595000E-02    2.0261555E-09
  1.2630000E-02   -2.2460325E-09
  1.2665000E-02    2.6158220E-09
  1.2700000E-02    5.6885594E-09
  1.2735000E-02   -6.2895328E-10
  1.2770000E-02   -4.2159707E-09
  1.2805000E-02   -2.3049336E-09
  1.2840000E-02   -5.9243133E-10
  1.2875000E-02    1.8411235E-09
  1.2910000E-02    2.6210949E-09
  1.2945000E-02   -5.6178467E-10
  1.2980000E-02   -1.3955886E-09
  1.3015000E-02    1.1038456E-09
  1.3050000E-02    4.8718402E-10
  1.3085000E-02   -2.1474853E-09
  1.3120000E-02   -4.5256107E-10
  1.3155000E-02    3.4539913E-09
  1.3190000E-02    1.8000363E-09
  1.3225000E-02   -3.2018073E-09
  1.3260000E-02   -2.1039996E-09
  1.3295000E-02    2.0431454E-09
  1.3330000E-02    8.2595109E-10
  1.3365000E-02   -8.0890161E-10
  1.3400000E-02    1.3355883E-09
  1.3435000E-02    1.0385838E-09
  1.3470000E-02   -9.2799973E-10
  1.3505000E-02   -1.3237482E-10
  1.3540000E-02   -9.6595419E-11
  1.3575000E-02   -4.3813200E-10
  1.3610000E-02    2.0480477E-09
  1.3645000E-02    2.4986273E-09
  1.3680000E-02   -6.4170627E-11
  1.3715000E-02    4.8597543E-11
  1.3750000E-02    1.1487268E-09
  1.3785000E-02   -4.1927006E-10
  1.3820000E-02   -1.1838029E-09
  1.3855000E-02    1.3383873E-09
  1.3890000E-02    4.1132013E-09
  1.3925000E-02    3.3819034E-09
  1.3960000E-02   -5.2602855E-10
  1.3995000E-02   -2.1434232E-09
  1.4030000E-02    8.8377938E-10
  1.4065000E-02    2.9169811E-09
  1.4100000E-02    8.7801910E-10
  1.4135000E-02   -4.0258463E-10
  1.4170000E-02    1.6518745E-09
  1.4205000E-02    2.6492992E-09
  1.4240000E-02    1.1977656E-10
  1.4275000E-02   -1.4660476E-09
  1.4310000E-02    7.6568124E-10
  1.4345000E-02    2.4486484E-09
  1.4380000E-02    1.1452469E-09
  1.4415000E-02    4.8405829E-10
  1.4450000E-02    6.4014011E-10
  1.4485000E-02   -5.3218563E-10
  1.4520000E-02    1.6780358E-10
  1.4555000E-02    2.9596290E-09
  1.4590000E-02    1.7671203E-09
  1.4625000E-02   -1.7939710E-09
  1.4660000E-02   -1.2276622E-09
  1.4695000E-02   -9.4155968E-11
  1.4730000E-02   -1.8222164E-09
  1.4765000E-02   -3.7171041E-10
  1.4800000E-02    3.1738938E-09
  1.4835000E-02    1.5354866E-09
  1.4870000E-02   -1.0866706E-09
  1.4905000E-02   -7.6508322E-10
  1.4940000E-02   -3.0571670E-09
  1.4975000E-02   -4.4158543E-09
  1.5010000E-02    8.1459761E-10
  1.5045000E-02    2.7610183E-09
  1.5080000E-02   -2.2601490E-09
  1.5115000E-02   -3.7457424E-09
  1.5150000E-02   -1.7881027E-09
  1.5185000E-02   -1.8667985E-09
  1.5220000E-02   -6.6564465E-10
  1.5255000E-02    2.1582100E-10
  1.5290000E-02   -2.7115972E-09
  1.5325000E-02   -3.3402690E-09
  1.5360000E-02   -1.1552440E-09
  1.5395000E-02   -2.2263071E-09
  1.5430000E-02   -3.2907830E-09
  1.5465000E-02   -1.3933626E-09
  1.5500000E-02   -1.5264290E-09
  1.5535000E-02   -3.2904035E-09
  1.5570000E-02   -2.4543991E-09
  1.5605000E-02   -1.2370240E-09
  1.5640000E-02   -2.1579993E-09
  1.5675001E-02   -3.0621912E-09
  1.5710000E-02   -3.2910670E-09
  1.5745001E-02   -3.8226187E-09
  1.5780000E-02   -2.1209889E-09
  1.5814999E-02    1.7734545E-09
  1.5850000E-02    7.3407586E-10
  1.5884999E-02   -4.4847024E-09
  1.5920000E-02   -3.8410888E-09
  1.5954999E-02   -3.5380401E-10
  1.5990000E-02   -2.8535156E-09
  1.6024999E-02   -4.1987520E-09
  1.6060000E-02    1.4013952E-10
  1.6094999E-02    1.3363316E-09
  1.6130000E-02   -1.7408397E-10
  1.6164999E-02    2.2357173E-10
  1.6200000E-02   -1.6034135E-09
  1.6235000E-02   -3.1646958E-09
  1.6270000E-02   -3.9619197E-10
  1.6305000E-02    2.7948982E-10
  1.6340001E-02   -7.3244349E-10
  1.6375000E-02    1.1511557E-09
  1.6410001E-02    2.6586763E-10
  1.6445000E-02   -2.4058129E-09
  1.6480001E-02    2.0531438E-11
  1.6515000E-02    2.0446469E-09
  1.6550001E-02    9.6973785E-10
  1.6585000E-02    2.5416644E-09
  1.6620001E-02    3.2776883E-09
  1.6655000E-02    8.3750828E-10
  1.6690001E-02    1.3494433E-09
  1.6725000E-02    2.5289306E-09
  1.6759999E-02    4.7006982E-10
  1.6795000E-02    8.2611473E-11
  1.6829999E-02    1.4484265E-09
  1.6865000E-02    1.1064812E-09
  1.6899999E-02    1.5793745E-09
  1.6935000E-02    2.9963161E-09
  1.6969999E-02    2.5108995E-09
  1.7005000E-02    1.3842844E-09
  1.7039999E-02    9.2563024E-10
  1.7075000E-02    1.2225837E-09
  1.7109999E-02    2.2566504E-09
  1.7145000E-02    1.7815750E-09
  1.7180000E-02    3.4413675E-10
  1.7215000E-02    1.4319581E-09
  1.7250000E-02    2.9386091E-09
  1.7285001E-02    1.5601135E-09
  1.7320000E-02    3.7397740E-10
  1.7355001E-02    1.4588178E-09
  1.7390000E-02    1.7143195E-09
  1.7425001E-02    2.5909039E-10
  1.7460000E-02   -6.7955565E-11
  1.7495001E-02    1.0144355E-09
  1.7530000E-02    9.0428448E-10
  1.7565001E-02    3.8139054E-11
  1.7600000E-02    4.2790982E-10
  1.7635001E-02    4.4826634E-10
  1.7670000E-02   -4.6356971E-10
  1.7704999E-02    6.5568190E-10
  1.7740000E-02    2.4759716E-09
  1.7774999E-02    1.6817007E-09
  1.7810000E-02    3.3633635E-10
  1.7844999E-02   -2.0622943E-12
  1.7880000E-02   -4.3067838E-10
  1.7914999E-02    1.8759586E-13
  1.7950000E-02    3.9719203E-10
  1.7984999E-02   -8.2437296E-10
  1.8020000E-02   -4.4606085E-10
  1.8054999E-02    1.2815100E-09
  1.8090000E-02   -5.0686461E-10
  1.8124999E-02   -3.0572949E-09
  1.8160000E-02   -1.2217608E-09
  1.8195000E-02    1.3020449E-09
  1.8230001E-02    7.2390782E-10
  1.8265000E-02    4.1582962E-10
  1.8300001E-02    1.9883637E-09
  1.8335000E-02    1.2918062E-09
  1.8370001E-02   -1.9221524E-09
  1.8405000E-02   -1.4834136E-09
  1.8440001E-02    1.8170220E-09
  1.8475000E-02    2.8230712E-10
  1.8510001E-02   -2.6416318E-09
  1.8545000E-02    1.1120654E-10
  1.8580001E-02    1.0855846E-09
  1.8615000E-02   -3.2539025E-09
  1.8650001E-02   -2.3462647E-09
  1.8685000E-02    2.2955005E-09
  1.8719999E-02    2.8899244E-10
  1.8755000E-02   -2.7163085E-09
  1.8789999E-02    3.9805978E-10
  1.8825000E-02    2.6426010E-09
  1.8859999E-02    3.4808539E-10
  1.8895000E-02   -1.1908292E-09
  1.8929999E-02   -7.8731285E-11
  1.8965000E-02    2.8746086E-10
  1.8999999E-02   -1.6630076E-09
  1.9035000E-02   -1.6938503E-09
  1.9069999E-02    1.8067797E-09
  1.9105000E-02    1.5889776E-09
  1.9140000E-02   -3.1147165E-09
  1.9175000E-02   -3.3019829E-09
  1.9210000E-02    1.3522032E-10
  1.9245001E-02    8.7995097E-11
  1.9280000E-02   -1.4719970E-09
  1.9315001E-02   -1.6267335E-09
  1.9350000E-02   -9.0559216E-10
  1.9385001E-02    8.8285840E-10
  1.9420000E-02    9.4322194E-10
  1.9455001E-02   -9.2362845E-10
  1.9490000E-02    5.7488233E-11
  1.9525001E-02    1.2104013E-09
  1.9560000E-02   -1.2750621E-09
  1.9595001E-02   -2.3533830E-09
  1.9630000E-02   -1.1584663E-09
  1.9664999E-02   -1.3255268E-09
  1.9700000E-02   -8.8908647E-10
  1.9734999E-02    2.2543507E-11
  1.9770000E-02   -7.1210265E-10
  1.9804999E-02   -3.2175351E-10
  1.9840000E-02    2.0545002E-10
  1.9874999E-02   -1.6295185E-09
  1.9910000E-02   -1.2604451E-09
  1.9944999E-02    1.6011149E-09
  1.9980000E-02    1.3101057E-09
  2.0014999E-02   -4.3304635E-10
  2.0050000E-02    5.6795885E-10
  2.0085000E-02    2.1633553E-09
  2.0120000E-02    1.2099546E-09
  2.0155000E-02   -1.6275304E-09
  2.0190001E-02   -2.3526878E-09
  2.0225000E-02    3.2899103E-10
  2.0260001E-02    1.7343593E-09
  2.0295000E-02    8.9789326E-10
  2.0330001E-02    1.3241408E-09
  2.0365000E-02    8.7812901E-10
  2.0400001E-02   -1.3423852E-09
  2.0435000E-02   -3.4057340E-11
  2.0470001E-02    3.0228813E-09
  2.0505000E-02    1.9231006E-09
  2.0540001E-02    1.5411224E-10
  2.0575000E-02    1.7463651E-09
  2.0609999E-02    2.5042441E-09
  2.0645000E-02    4.5942314E-10
  2.0679999E-02   -1.2531472E-10
  2.0715000E-02    1.9117867E-09
  2.0749999E-02    2.1730395E-09
  2.0785000E-02   -5.4812876E-10
  2.0819999E-02   -1.0333207E-09
  2.0855000E-02    2.4624789E-09
  2.0889999E-02    3.9219881E-09
  2.0925000E-02    9.6349217E-10
  2.0959999E-02   -4.4339046E-10
  2.0995000E-02    2.1015083E-09
  2.1029999E-02    2.7228144E-09
  2.1065000E-02   -2.5629926E-10
  2.1100000E-02   -4.5288325E-11
  2.1135001E-02    3.8154924E-09
  2.1170000E-02    2.9712408E-09
  2.1205001E-02   -1.5632835E-09
  2.1240000E-02   -1.0235515E-09
  2.1275001E-02    2.0509430E-09
  2.1310000E-02    6.6238232E-10
  2.1345001E-02   -1.7618469E-09
  2.1380000E-02   -1.0091625E-09
  2.1415001E-02    7.3277279E-10
  2.1450000E-02    1.7157323E-09
  2.1485001E-02    1.1082806E-09
  2.1520000E-02   -7.9235646E-10
  2.1555001E-02   -1.1222948E-09
  2.1590000E-02   -4.5719778E-10
  2.1624999E-02   -1.0165185E-09
  2.1660000E-02   -5.3244364E-10
  2.1694999E-02    9.6286967E-10
  2.1730000E-02   -3.2268577E-10
  2.1764999E-02   -2.2444380E-09
  2.1800000E-02   -9.9690356E-10
  2.1834999E-02    7.9954425E-11
  2.1870000E-02   -1.8540554E-09
  2.1904999E-02   -3.3724759E-09
  2.1940000E-02   -2.7745768E-09
  2.1974999E-02   -2.0692283E-09
  2.2010000E-02   -4.9036636E-10
  2.2045000E-02    1.9639905E-09
  2.2080000E-02    3.6271527E-10
  2.2115000E-02   -3.8594590E-09
  2.2150001E-02   -2.5930322E-09
  2.2185000E-02    7.3401968E-10
  2.2220001E-02   -2.0926787E-09
  2.2255000E-02   -4.3375716E-09
  2.2290001E-02    1.2132451E-10
  2.2325000E-02    1.9088571E-09
  2.2360001E-02   -2.4377851E-09
  2.2395000E-02   -4.0683577E-09
  2.2430001E-02   -1.8424948E-09
  2.2465000E-02   -1.3765603E-09
  2.2500001E-02   -2.0484283E-09
  2.2535000E-02   -8.0582385E-10
  2.2569999E-02    8.7820307E-10
  2.2605000E-02   -1.6763342E-10
  2.2639999E-02   -2.3914219E-09
  2.2675000E-02   -1.5317206E-09
  2.2709999E-02   -2.7381883E-10
  2.2745000E-02   -2.5835862E-09
  2.2779999E-02   -2.4247855E-09
  2.2815000E-02    2.6502764E-09
  2.2849999E-02    3.2667333E-09
  2.2885000E-02   -1.5225254E-09
  2.2919999E-02   -2.6853810E-09
  2.2955000E-02   -9.1453545E-10
  2.2990000E-02   -1.3310515E-09
  2.3025000E-02   -8.4988089E-10
  2.3060000E-02    2.2933255E-09
  2.3095001E-02    3.0716683E-09
  2.3130000E-02    1.9664399E-10
  2.3165001E-02   -8.2202500E-10
  2.3200000E-02    1.6786086E-09
  2.3235001E-02    1.5067988E-09
  2.3270000E-02   -2.2035058E-09
  2.3305001E-02   -1.0764351E-09
  2.3340000E-02    4.0081174E-09
  2.3375001E-02    2.7204337E-09
  2.3410000E-02   -1.7248124E-09
  2.3445001E-02    5.4689059E-10
  2.3480000E-02    2.9724048E-09
  2.3514999E-02   -1.9703090E-09
  2.3550000E-02   -3.4576995E-09
  2.3584999E-02    4.0912744E-09
  2.3620000E-02    6.3249783E-09
  2.3654999E-02   -1.3903970E-09
  2.3690000E-02   -3.6652574E-09
  2.3724999E-02    2.3289837E-09
  2.3760000E-02    2.6050850E-09
  2.3794999E-02   -2.1276918E-09
  2.3830000E-02   -5.5609040E-10
  2.3864999E-02    3.3085701E-09
  2.3900000E-02    1.6137643E-09
  2.3934999E-02   -8.9614594E-10
  2.3970000E-02   -4.3050556E-11
  2.4005000E-02    1.0098131E-09
  2.4040001E-02    3.7740790E-11
  2.4075000E-02   -1.1551365E-09
  2.4110001E-02    1.2145388E-09
  2.4145000E-02    4.4256065E-09
  2.4180001E-02    8.0374979E-10
  2.4215000E-02   -3.5388539E-09
  2.4250001E-02    1.1724917E-09
  2.4285000E-02    3.9663131E-09
  2.4320001E-02   -2.5764511E-09
  2.4355000E-02   -3.2537593E-09
  2.4390001E-02    3.9784216E-09
  2.4425000E-02    2.9649858E-09
  2.4460001E-02   -2.7961715E-09
  2.4495000E-02    1.3819190E-10
  2.4529999E-02    4.1632018E-09
  2.4565000E-02   -3.6357573E-10
  2.4599999E-02   -3.7028196E-09
  2.4635000E-02    6.3289024E-10
  2.4669999E-02    2.0527338E-09
  2.4705000E-02   -2.5882725E-09
  2.4739999E-02   -1.8235293E-09
  2.4775000E-02    3.3348131E-09
  2.4809999E-02    1.5387330E-09
  2.4845000E-02   -1.9668274E-09
  2.4879999E-02    7.1626649E-10
  2.4915000E-02    1.4220347E-09
  2.4950000E-02   -1.7846448E-09
  2.4985000E-02   -1.2837820E-09
  2.5020000E-02   -9.9843467E-11
  2.5055001E-02   -1.3859480E-09
  2.5090000E-02   -5.8663030E-10
  2.5125001E-02    1.3689391E-09
  2.5160000E-02    2.4179296E-09
  2.5195001E-02    2.1694984E-09
  2.5230000E-02   -2.3241091E-09
  2.5265001E-02   -4.9142099E-09
  2.5300000E-02   -6.7671362E-11
  2.5335001E-02    1.1744232E-09
  2.5370000E-02   -2.2215296E-09
  2.5405001E-02    1.5557646E-09
  2.5440000E-02    4.3986832E-09
  2.5474999E-02   -2.1563762E-09
  2.5510000E-02   -4.4641255E-09
  2.5544999E-02   -5.3639493E-10
  2.5580000E-02   -1.2096651E-09
  2.5614999E-02   -1.1098936E-09
  2.5650000E-02    2.7146241E-09
  2.5684999E-02    6.4432903E-10
  2.5720000E-02   -3.5904117E-09
  2.5754999E-02   -1.6133347E-09
  2.5790000E-02    7.2116230E-10
  2.5824999E-02    8.5448662E-11
  2.5860000E-02    6.3982325E-10
  2.5895000E-02    9.7194985E-10
  2.5930000E-02   -1.3068484E-11
  2.5965000E-02    2.1264461E-10
  2.6000001E-02   -6.2684530E-10
  2.6035000E-02   -3.0676790E-09
  2.6070001E-02   -1.7544332E-09
  2.6105000E-02    1.3620436E-09
  2.6140001E-02   -1.3445831E-10
  2.6175000E-02   -1.9636608E-09
  2.6210001E-02    9.0587277E-10
  2.6245000E-02    2.1524387E-09
  2.6280001E-02   -5.4370702E-10
  2.6315000E-02   -6.9110739E-10
  2.6350001E-02    4.0664913E-10
  2.6385000E-02   -1.4961616E-09
  2.6419999E-02   -1.3818749E-09
  2.6455000E-02    1.6093703E-09
  2.6489999E-02    2.6890482E-10
  2.6525000E-02   -3.1554521E-09
  2.6559999E-02   -1.4192592E-09
  2.6595000E-02    1.5132295E-09
  2.6629999E-02    5.6171551E-10
  2.6665000E-02    8.1009893E-10
  2.6699999E-02    3.6333532E-09
  2.6735000E-02    1.4457920E-09
  2.6769999E-02   -4.1175290E-09
  2.6805000E-02   -3.0148295E-09
  2.6839999E-02    1.4988868E-09
  2.6875000E-02    4.1231737E-10
  2.6910000E-02   -8.5207041E-10
  2.6945001E-02    2.2267113E-09
  2.6980000E-02    1.7465743E-09