 -4.8000002E-03    1.0000000E-24
 -4.7650002E-03    1.0000000E-24
 -4.7300002E-03    1.0000001E-24
 -4.6950001E-03    1.0000002E-24
 -4.6600001E-03    1.0000001E-24
 -4.6250001E-03    1.0000000E-24
 -4.5900000E-03    1.0000000E-24
 -4.5550000E-03    1.0000002E-24
 -4.5200000E-03    1.0000000E-24
 -4.4849999E-03    1.0000000E-24
 -4.4499999E-03    1.0000002E-24
 -4.4149999E-03    1.0000003E-24
 -4.3799998E-03    1.0000002E-24
 -4.3449998E-03    1.0000000E-24
 -4.3100002E-03    9.9999992E-25
 -4.2750002E-03    1.0000001E-24
 -4.2400002E-03    1.0000001E-24
 -4.2050001E-03    9.9999992E-25
 -4.1700001E-03    9.9999982E-25
 -4.1350001E-03    1.0000001E-24
 -4.1000000E-03    1.0000004E-24
 -4.0650000E-03    1.0000001E-24
 -4.0300000E-03    9.9999943E-25
 -3.9949999E-03    9.9999972E-25
 -3.9599999E-03    1.0000003E-24
 -3.9249999E-03    1.0000005E-24
 -3.8900001E-03    1.0000001E-24
 -3.8550000E-03    9.9999992E-25
 -3.8200000E-03    1.0000000E-24
 -3.7849999E-03    1.0000002E-24
 -3.7499999E-03    1.0000003E-24
 -3.7150001E-03    1.0000001E-24
 -3.6800001E-03    1.0000001E-24
 -3.6450000E-03    1.0000000E-24
 -3.6100000E-03    9.9999992E-25
 -3.5750000E-03    9.9999982E-25
 -3.5399999E-03    1.0000000E-24
 -3.5049999E-03    1.0000002E-24
 -3.4700001E-03    1.0000001E-24
 -3.4350001E-03    1.0000000E-24
 -3.4000000E-03    1.0000001E-24
 -3.3650000E-03    1.0000002E-24
 -3.3300000E-03    1.0000000E-24
 -3.2949999E-03    9.9999982E-25
 -3.2599999E-03    9.9999972E-25
 -3.2250001E-03    9.9999982E-25
 -3.1900001E-03    1.0000001E-24
 -3.1550000E-03    1.0000003E-24
 -3.1200000E-03    1.0000002E-24
 -3.0850000E-03    1.0000000E-24
 -3.0499999E-03    1.0000001E-24
 -3.0149999E-03    1.0000001E-24
 -2.9800001E-03    9.9999982E-25
 -2.9450001E-03    9.9999992E-25
 -2.9100000E-03    1.0000003E-24
 -2.8750000E-03    1.0000002E-24
 -2.8400000E-03    9.9999992E-25
 -2.8049999E-03    1.0000000E-24
 -2.7699999E-03    1.0000004E-24
 -2.7350001E-03    1.0000003E-24
 -2.7000001E-03    9.9999972E-25
 -2.6650000E-03    9.9999953E-25
 -2.6300000E-03    1.0000000E-24
 -2.5950000E-03    1.0000009E-24
 -2.5599999E-03    1.0000008E-24
 -2.5249999E-03    1.0000000E-24
 -2.4900001E-03    9.9999972E-25
 -2.4550001E-03    1.0000001E-24
 -2.4200000E-03    1.0000005E-24
 -2.3850000E-03    1.0000004E-24
 -2.3500000E-03    9.9999992E-25
 -2.3149999E-03    9.9999943E-25
 -2.2799999E-03    9.9999953E-25
 -2.2450001E-03    1.0000001E-24
 -2.2100001E-03    1.0000004E-24
 -2.1750000E-03    1.0000002E-24
 -2.1400000E-03    9.9999992E-25
 -2.1050000E-03    1.0000000E-24
 -2.0699999E-03    1.0000005E-24
 -2.0349999E-03    1.0000009E-24
 -2.0000001E-03    1.0000003E-24
 -1.9650001E-03    9.9999963E-25
 -1.9300000E-03    9.9999972E-25
 -1.8950000E-03    1.0000003E-24
 -1.8600000E-03    1.0000001E-24
 -1.8250000E-03    9.9999953E-25
 -1.7900000E-03    9.9999982E-25
 -1.7550000E-03    1.0000004E-24
 -1.7199999E-03    1.0000003E-24
 -1.6850000E-03    9.9999972E-25
 -1.6500000E-03    9.9999943E-25
 -1.6150000E-03    9.9999992E-25
 -1.5800000E-03    1.0000005E-24
 -1.5450000E-03    1.0000005E-24
 -1.5100000E-03    1.0000002E-24
 -1.4750001E-03    9.9999982E-25
 -1.4400000E-03    9.9999963E-25
 -1.4050000E-03    9.9999992E-25
 -1.3700000E-03    1.0000010E-24
 -1.3350000E-03    1.0000010E-24
 -1.3000000E-03    9.9999963E-25
 -1.2650000E-03    9.9999864E-25
 -1.2300001E-03    9.9999923E-25
 -1.1950000E-03    1.0000004E-24
 -1.1600000E-03    1.0000013E-24
 -1.1250000E-03    1.0000009E-24
 -1.0900000E-03    9.9999953E-25
 -1.0550000E-03    9.9999913E-25
 -1.0200000E-03    1.0000000E-24
 -9.8500005E-04    1.0000000E-24
 -9.5000002E-04    1.0000001E-24
 -9.1499998E-04    1.0000011E-24
 -8.8000001E-04    1.0000014E-24
 -8.4499997E-04    1.0000001E-24
 -8.1000000E-04    9.9999913E-25
 -7.7500002E-04    9.9999943E-25
 -7.3999999E-04    1.0000001E-24
 -7.0500001E-04    1.0000006E-24
 -6.6999998E-04    1.0000003E-24
 -6.3500000E-04    9.9999953E-25
 -6.0000003E-04    9.9999963E-25
 -5.6499999E-04    1.0000002E-24
 -5.3000002E-04    1.0000000E-24
 -4.9499999E-04    1.0000005E-24
 -4.6000001E-04    1.0000008E-24
 -4.2500001E-04    1.0000000E-24
 -3.9000000E-04    9.9999893E-25
 -3.5500000E-04    9.9999913E-25
 -3.1999999E-04    9.9999992E-25
 -2.8499999E-04    1.0000006E-24
 -2.5000001E-04    1.0000008E-24
 -2.1499999E-04    1.0000002E-24
 -1.8000000E-04    1.0000000E-24
 -1.4500000E-04    1.0000002E-24
 -1.1000000E-04    1.0000001E-24
 -7.5000004E-05    9.9999982E-25
 -3.9999999E-05    1.0000002E-24
 -4.9999999E-06    1.0000006E-24
  2.9999999E-05    1.0000006E-24
  6.5000000E-05    1.0000002E-24
  9.9999997E-05    1.0000001E-24
  1.3499999E-04    1.0000003E-24
  1.7000000E-04    9.9999982E-25
  2.0500000E-04    9.9999933E-25
  2.3999999E-04    9.9999963E-25
  2.7500000E-04    1.0000001E-24
  3.1000000E-04    9.9999972E-25
  3.4500001E-04    9.9999943E-25
  3.8000001E-04    9.9999982E-25
  4.1499999E-04    1.0000008E-24
  4.4999999E-04    1.0000018E-24
  4.8500000E-04    1.0000011E-24
  5.2000000E-04    9.9999903E-25
  5.5499998E-04    9.9999824E-25
  5.9000001E-04    9.9999982E-25
  6.2499999E-04    1.0000014E-24
  6.6000002E-04    1.0000014E-24
  6.9500000E-04    9.9999992E-25
  7.3000003E-04    9.9999844E-25
  7.6500000E-04    9.9999893E-25
  7.9999998E-04    1.0000004E-24
  8.3500001E-04    1.0000005E-24
  8.6999999E-04    9.9999982E-25
  9.0500002E-04    1.0000000E-24
  9.4000000E-04    1.0000004E-24
  9.7499997E-04    9.9999992E-25
  1.0100000E-03    9.9999972E-25
  1.0450000E-03    1.0000003E-24
  1.0800000E-03    1.0000006E-24
  1.1150000E-03    9.9999982E-25
  1.1500000E-03    9.9999953E-25
  1.1849999E-03    1.0000002E-24
  1.2200000E-03    1.0000008E-24
  1.2550000E-03    1.0000007E-24
  1.2900000E-03    1.0000004E-24
  1.3250000E-03    9.9999982E-25
  1.3600000E-03    9.9999903E-25
  1.3950000E-03    9.9999903E-25
  1.4299999E-03    1.0000001E-24
  1.4650000E-03    1.0000007E-24
  1.5000000E-03    1.0000005E-24
  1.5350000E-03    1.0000000E-24
  1.5700000E-03    9.9999953E-25
  1.6050000E-03    9.9999992E-25
  1.6400000E-03    1.0000014E-24
  1.6749999E-03    1.0000013E-24
  1.7100000E-03    9.9999943E-25
  1.7450000E-03    9.9999884E-25
  1.7800000E-03    9.9999982E-25
  1.8150000E-03    1.0000006E-24
  1.8500000E-03    1.0000006E-24
  1.8850000E-03    1.0000004E-24
  1.9200000E-03    9.9999953E-25
  1.9550000E-03    9.9999933E-25
  1.9900000E-03    1.0000004E-24
  2.0250001E-03    1.0000010E-24
  2.0600001E-03    1.0000003E-24
  2.0949999E-03    9.9999972E-25
  2.1299999E-03    9.9999992E-25
  2.1650000E-03    1.0000001E-24
  2.2000000E-03    9.9999972E-25
  2.2350000E-03    9.9999963E-25
  2.2700001E-03    1.0000009E-24
  2.3050001E-03    1.0000018E-24
  2.3399999E-03    1.0000005E-24
  2.3749999E-03    9.9999943E-25
  2.4100000E-03    9.9999943E-25
  2.4450000E-03    9.9999992E-25
  2.4800000E-03    1.0000002E-24
  2.5150001E-03    1.0000002E-24
  2.5500001E-03    9.9999982E-25
  2.5849999E-03    9.9999972E-25
  2.6199999E-03    9.9999933E-25
  2.6550000E-03    9.9999903E-25
  2.6900000E-03    1.0000003E-24
  2.7250000E-03    1.0000013E-24
  2.7600001E-03    9.9999963E-25
  2.7950001E-03    9.9999854E-25
  2.8299999E-03    1.0000006E-24
  2.8649999E-03    1.0000020E-24
  2.9000000E-03    1.0000012E-24
  2.9350000E-03    1.0000006E-24
  2.9700000E-03    9.9999933E-25
  3.0050001E-03    9.9999805E-25
  3.0400001E-03    9.9999982E-25
  3.0749999E-03    1.0000024E-24
  3.1099999E-03    1.0000011E-24
  3.1450000E-03    9.9999893E-25
  3.1800000E-03    9.9999864E-25
  3.2150000E-03    9.9999844E-25
  3.2500001E-03    9.9999953E-25
  3.2850001E-03    1.0000021E-24
  3.3199999E-03    1.0000025E-24
  3.3549999E-03    1.0000004E-24
  3.3900000E-03    9.9999903E-25
  3.4250000E-03    9.9999795E-25
  3.4600000E-03    9.9999854E-25
  3.4950001E-03    1.0000024E-24
  3.5300001E-03    1.0000039E-24
  3.5649999E-03    1.0000004E-24
  3.5999999E-03    9.9999785E-25
  3.6350000E-03    9.9999815E-25
  3.6700000E-03    9.9999854E-25
  3.7050000E-03    1.0000001E-24
  3.7400001E-03    1.0000022E-24
  3.7750001E-03    1.0000018E-24
  3.8099999E-03    9.9999953E-25
  3.8449999E-03    9.9999824E-25
  3.8800000E-03    9.9999844E-25
  3.9149998E-03    9.9999982E-25
  3.9499998E-03    1.0000018E-24
  3.9849998E-03    1.0000021E-24
  4.0199999E-03    1.0000002E-24
  4.0549999E-03    9.9999923E-25
  4.0899999E-03    9.9999943E-25
  4.1250000E-03    9.9999923E-25
  4.1600000E-03    1.0000002E-24
  4.1950000E-03    1.0000012E-24
  4.2300001E-03    9.9999972E-25
  4.2650001E-03    9.9999815E-25
  4.3000001E-03    9.9999972E-25
  4.3350002E-03    1.0000012E-24
  4.3700002E-03    1.0000011E-24
  4.4049998E-03    1.0000007E-24
  4.4399998E-03    9.9999923E-25
  4.4749998E-03    9.9999795E-25
  4.5099999E-03    9.9999963E-25
  4.5449999E-03    1.0000015E-24
  4.5799999E-03    1.0000018E-24
  4.6150000E-03    1.0000018E-24
  4.6500000E-03    1.0000006E-24
  4.6850001E-03    9.9999815E-25
  4.7200001E-03    9.9999844E-25
  4.7550001E-03    1.0000010E-24
  4.7900002E-03    1.0000020E-24
  4.8250002E-03    1.0000006E-24
  4.8600002E-03    9.9999834E-25
  4.8949998E-03    9.9999765E-25
  4.9299998E-03    9.9999992E-25
  4.9649999E-03    1.0000024E-24
  4.9999999E-03    1.0000012E-24
  5.0349999E-03    9.9999864E-25
  5.0700000E-03    9.9999953E-25
  5.1050000E-03    1.0000021E-24
  5.1400000E-03    1.0000004E-24
  5.1750001E-03    9.9999598E-25
  5.2100001E-03    9.9999913E-25
  5.2450001E-03    1.0000068E-24
  5.2800002E-03    1.0000020E-24
  5.3150002E-03    9.9998838E-25
  5.3500002E-03    9.9999499E-25
  5.3849998E-03    1.0000209E-24
  5.4199998E-03    1.0000157E-24
  5.4549999E-03    9.9996797E-25
  5.4899999E-03    9.9996620E-25
  5.5249999E-03    1.0000487E-24
  5.5600000E-03    1.0000677E-24
  5.5950000E-03    9.9992705E-25
  5.6300000E-03    9.9986838E-25
  5.6650001E-03    1.0001021E-24
  5.7000001E-03    1.0002503E-24
  5.7350001E-03    9.9987439E-25
  5.7700002E-03    9.9953755E-25
  5.8050002E-03    1.0001153E-24
  5.8400002E-03    1.0008232E-24
  5.8749998E-03    9.9998582E-25
  5.9099998E-03    9.9858717E-25
  5.9449999E-03    9.9970735E-25
  5.9799999E-03    1.0023412E-24
  6.0149999E-03    1.0010308E-24
  6.0500000E-03    9.9626634E-25
  6.0850000E-03    9.9738938E-25
  6.1200000E-03    1.0056898E-24
  6.1550001E-03    1.0057391E-24
  6.1900001E-03    9.9181332E-25
  6.2250001E-03    9.8842418E-25
  6.2600002E-03    1.0108755E-24
  6.2950002E-03    1.0219332E-24
  6.3299998E-03    9.8730380E-25
  6.3649998E-03    9.6050432E-25
  6.3999998E-03    1.0111764E-24
  6.4349999E-03    1.0679532E-24
  6.4699999E-03    9.9872739E-25
  6.5049999E-03    8.8811923E-25
  6.5400000E-03    9.7354143E-25
  6.5750000E-03    1.1760074E-24
  6.6100000E-03    1.0885781E-24
  6.6450001E-03    7.3678618E-25
  6.6800001E-03    7.8751511E-25
  6.7150001E-03    1.3702135E-24
  6.7500002E-03    1.4409892E-24
  6.7850002E-03    5.2069134E-25
  6.8199998E-03    1.6301965E-25
  6.8549998E-03    1.5439601E-24
  6.8899998E-03    2.4863087E-24
  6.9249999E-03    5.3479839E-25
  6.9599999E-03   -1.4948766E-24
  6.9949999E-03    1.0556692E-24
  7.0300000E-03    4.9726967E-24
  7.0650000E-03    2.0113417E-24
  7.1000000E-03   -4.9928734E-24
  7.1350001E-03   -2.2677582E-24
  7.1700001E-03    9.5069398E-24
  7.2050001E-03    8.5252640E-24
  7.2400002E-03   -1.0190154E-23
  7.2750002E-03   -1.3939698E-23
  7.3099998E-03    1.4182908E-23
  7.3449998E-03    2.8025319E-23
  7.3799998E-03   -1.1690407E-23
  7.4149999E-03   -4.4544719E-23
  7.4499999E-03    7.4088972E-24
  7.4850000E-03    7.3151457E-23
  7.5200000E-03    1.2226867E-23
  7.5550000E-03   -1.0659771E-22
  7.5900001E-03   -4.7916888E-23
  7.6250001E-03    1.5124535E-22
  7.6600001E-03    1.2031163E-22
  7.6950002E-03   -1.9255125E-22
  7.7300002E-03   -2.3838624E-22
  7.7650002E-03    2.2317231E-22
  7.7999998E-03    4.3067650E-22
  7.8349998E-03   -2.0541030E-22
  7.8699999E-03   -7.1024174E-22
  7.9049999E-03    9.5988115E-23
  7.9399999E-03    1.0996733E-21
  7.9750000E-03    1.9425168E-22
  8.0100000E-03   -1.5858830E-21
  8.0450000E-03   -7.7603269E-22
  8.0800001E-03    2.1299574E-21
  8.1150001E-03    1.8172599E-21
  8.1500001E-03   -2.6013600E-21
  8.1850002E-03   -3.5045102E-21
  8.2200002E-03    2.7627297E-21
  8.2550002E-03    6.0489561E-21
  8.2900003E-03   -2.1781750E-21
  8.3250003E-03   -9.5953282E-21
  8.3600003E-03    1.7932574E-22
  8.3950004E-03    1.4144876E-20
  8.4300004E-03    4.2235446E-21
  8.4650004E-03   -1.9345412E-20
  8.5000005E-03   -1.2328259E-20
  8.5349996E-03    2.4260023E-20
  8.5699996E-03    2.5705544E-20
  8.6049996E-03   -2.6980874E-20
  8.6399997E-03   -4.5943405E-20
  8.6749997E-03    2.4234356E-20
  8.7099997E-03    7.4205571E-20
  8.7449998E-03   -1.0910840E-20
  8.7799998E-03   -1.1036594E-19
  8.8149998E-03   -2.0224592E-20
  8.8499999E-03    1.5174001E-19
  8.8849999E-03    7.8546719E-20
  8.9199999E-03   -1.9121770E-19
  8.9550000E-03   -1.7484348E-19
  8.9900000E-03    2.1495977E-19
  9.0250000E-03    3.1951306E-19
  9.0600001E-03   -1.9975339E-19
  9.0950001E-03   -5.1899519E-19
  9.1300001E-03    1.1068287E-19
  9.1650002E-03    7.6997983E-19
  9.2000002E-03    1.0005067E-19
  9.2350002E-03   -1.0508247E-18
  9.2700003E-03   -4.9153037E-19
  9.3050003E-03    1.3102710E-18
  9.3400003E-03    1.1277716E-18
  9.3750004E-03   -1.4540967E-18
  9.4100004E-03   -2.0638855E-18
  9.4450004E-03    1.3318932E-18
  9.4799995E-03    3.3220994E-18
  9.5149996E-03   -7.2775552E-19
  9.5499996E-03   -4.8551999E-18
  9.5849996E-03   -6.3870901E-19
  9.6199997E-03    6.4968263E-18
  9.6549997E-03    3.0923545E-18
  9.6899997E-03   -7.9009769E-18
  9.7249998E-03   -6.9522289E-18
  9.7599998E-03    8.4785947E-18
  9.7949998E-03    1.2439176E-17
  9.8299999E-03   -7.3463573E-18
  9.8649999E-03   -1.9530977E-17
  9.8999999E-03    3.3123474E-18
  9.9350000E-03    2.7760830E-17
  9.9700000E-03    5.0664742E-18
  1.0005000E-02   -3.5967487E-17
  1.0040000E-02   -1.9311407E-17
  1.0075000E-02    4.2025272E-17
  1.0110000E-02    4.0686483E-17
  1.0145000E-02   -4.2610644E-17
  1.0180000E-02   -6.9659526E-17
  1.0215000E-02    3.3097362E-17
  1.0250000E-02    1.0514250E-16
  1.0285000E-02   -7.7091810E-18
  1.0320000E-02   -1.4353910E-16
  1.0355000E-02   -3.9909383E-17
  1.0390000E-02    1.7770174E-16
  1.0425000E-02    1.1553320E-16
  1.0460000E-02   -1.9600054E-16
  1.0495000E-02   -2.2246360E-16
  1.0530000E-02    1.8183026E-16
  1.0565000E-02    3.5884321E-16
  1.0600000E-02   -1.1400575E-16
  1.0635000E-02   -5.1428405E-16
  1.0670000E-02   -3.1405593E-17
  1.0705000E-02    6.6616669E-16
  1.0740000E-02    2.7724352E-16
  1.0775000E-02   -7.7630967E-16
  1.0810000E-02   -6.3894464E-16
  1.0845000E-02    7.8910643E-16
  1.0880000E-02    1.1156146E-15
  1.0915000E-02   -6.3260523E-16
  1.0950000E-02   -1.6788782E-15
  1.0985000E-02    2.2429057E-16
  1.1020000E-02    2.2607504E-15
  1.1055000E-02    5.1668798E-16
  1.1090000E-02   -2.7428291E-15
  1.1125000E-02   -1.6495264E-15
  1.1160000E-02    2.9502916E-15
  1.1195000E-02    3.1837554E-15
  1.1230000E-02   -2.6552825E-15
  1.1265000E-02   -5.0447711E-15
  1.1300000E-02    1.5948692E-15
  1.1335000E-02    7.0369930E-15
  1.1370000E-02    4.9150431E-16
  1.1405000E-02   -8.8118726E-15
  1.1440000E-02   -3.8017799E-15
  1.1475000E-02    9.8512786E-15
  1.1510000E-02    8.3884629E-15
  1.1545000E-02   -9.4794083E-15
  1.1580000E-02   -1.4058847E-14
  1.1615000E-02    6.9174809E-15
  1.1650000E-02    2.0271252E-14
  1.1685000E-02   -1.3938355E-15
  1.1720000E-02   -2.6048816E-14
  1.1755000E-02   -7.6838475E-15
  1.1790000E-02    2.9940318E-14
  1.1825000E-02    2.0497798E-14
  1.1860000E-02   -3.0063557E-14
  1.1895000E-02   -3.6550210E-14
  1.1930000E-02    2.4267192E-14
  1.1965000E-02    5.4392841E-14
  1.2000000E-02   -1.0439490E-14
  1.2035000E-02   -7.1415930E-14
  1.2070000E-02   -1.3025445E-14
  1.2105000E-02    8.3774466E-14
  1.2140000E-02    4.6623716E-14
  1.2175000E-02   -8.6539533E-14
  1.2210000E-02   -8.9060222E-14
  1.2245000E-02    7.4157423E-14
  1.2280000E-02    1.3659831E-13
  1.2315000E-02   -4.1272087E-14
  1.2350000E-02   -1.8259523E-13
  1.2385000E-02   -1.6085186E-14
  1.2420000E-02    2.1741487E-13
  1.2455000E-02    9.9014208E-14
  1.2490000E-02   -2.2891633E-13
  1.2525000E-02   -2.0414596E-13
  1.2560000E-02    2.0368922E-13
  1.2595000E-02    3.2220475E-13
  1.2630000E-02   -1.2912207E-13
  1.2665000E-02   -4.3710765E-13
  1.2700000E-02   -3.7456475E-15
  1.2735000E-02    5.2602833E-13
  1.2770000E-02    1.9682656E-13
  1.2805000E-02   -5.6084006E-13
  1.2840000E-02   -4.4150290E-13
  1.2875000E-02    5.1124008E-13
  1.2910000E-02    7.1572538E-13
  1.2945000E-02   -3.4963886E-13
  1.2980000E-02   -9.8252970E-13
  1.3015000E-02    5.7565633E-14
  1.3050000E-02    1.1908543E-12
  1.3085000E-02    3.6707519E-13
  1.3120000E-02   -1.2794221E-12
  1.3155000E-02   -9.0299155E-13
  1.3190000E-02    1.1841385E-12
  1.3225000E-02    1.5002180E-12
  1.3260000E-02   -8.4891946E-13
  1.3295000E-02   -2.0782577E-12
  1.3330000E-02    2.3913917E-13
  1.3365000E-02    2.5293116E-12
  1.3400000E-02    6.4394133E-13
  1.3435000E-02   -2.7278431E-12
  1.3470000E-02   -1.7501816E-12
  1.3505000E-02    2.5469358E-12
  1.3540000E-02    2.9720102E-12
  1.3575000E-02   -1.8807354E-12
  1.3610000E-02   -4.1435154E-12
  1.3645000E-02    6.7081556E-13
  1.3680000E-02    5.0499626E-12
  1.3715000E-02    1.0671638E-12
  1.3750000E-02   -5.4494881E-12
  1.3785000E-02   -3.2214262E-12
  1.3820000E-02    5.1069010E-12
  1.3855000E-02    5.5723104E-12
  1.3890000E-02   -3.8372352E-12
  1.3925000E-02   -7.7962506E-12
  1.3960000E-02    1.5540328E-12
  1.3995000E-02    9.4896721E-12
  1.4030000E-02    1.6850786E-12
  1.4065000E-02   -1.0214564E-11
  1.4100000E-02   -5.6446709E-12
  1.4135000E-02    9.5639044E-12
  1.4170000E-02    9.8994823E-12
  1.4205000E-02   -7.2407969E-12
  1.4240000E-02   -1.3852499E-11
  1.4275000E-02    3.1409137E-12
  1.4310000E-02    1.6788616E-11
  1.4345000E-02    2.5759193E-12
  1.4380000E-02   -1.7963979E-11
  1.4415000E-02   -9.4409281E-12
  1.4450000E-02    1.6724686E-11
  1.4485000E-02    1.6673786E-11
  1.4520000E-02   -1.2641227E-11
  1.4555000E-02   -2.3233962E-11
  1.4590000E-02    5.6384563E-12
  1.4625000E-02    2.7930675E-11
  1.4660000E-02    3.9033442E-12
  1.4695000E-02   -2.9586736E-11
  1.4730000E-02   -1.5102265E-11
  1.4765000E-02    2.7239763E-11
  1.4800000E-02    2.6604892E-11
  1.4835000E-02   -2.0353774E-11
  1.4870000E-02   -3.6705916E-11
  1.4905000E-02    9.0049556E-12
  1.4940000E-02    4.3556287E-11
  1.4975000E-02    5.9977899E-12
  1.5010000E-02   -4.5442455E-11
  1.5045000E-02   -2.3094311E-11
  1.5080000E-02    4.1101379E-11
  1.5115000E-02    4.0081886E-11
  1.5150000E-02   -3.0022141E-11
  1.5185000E-02   -5.4358636E-11
  1.5220000E-02    1.2675905E-11
  1.5255000E-02    6.3284766E-11
  1.5290000E-02    9.3822328E-12
  1.5325000E-02   -6.4618928E-11
  1.5360000E-02   -3.3583317E-11
  1.5395000E-02    5.6963392E-11
  1.5430000E-02    5.6606407E-11
  1.5465000E-02   -4.0137161E-11
  1.5500000E-02   -7.4817069E-11
  1.5535000E-02    1.5395947E-11
  1.5570000E-02    8.4832731E-11
  1.5605000E-02    1.4568255E-11
  1.5640000E-02   -8.4130369E-11
  1.5675001E-02   -4.5883349E-11
  1.5710000E-02    7.1590171E-11
  1.5745001E-02    7.4001430E-11
  1.5780000E-02   -4.7862179E-11
  1.5814999E-02   -9.4392535E-11
  1.5850000E-02    1.5461384E-11
  1.5884999E-02    1.0332209E-10
  1.5920000E-02    2.1463777E-11
  1.5954999E-02   -9.8575079E-11
  1.5990000E-02   -5.7687098E-11
  1.6024999E-02    7.9981043E-11
  1.6060000E-02    8.7715064E-11
  1.6094999E-02   -4.9616658E-11
  1.6130000E-02   -1.0672718E-10
  1.6164999E-02    1.1609363E-11
  1.6200000E-02    1.1147364E-10
  1.6235000E-02    2.8459221E-11
  1.6270000E-02   -1.0095193E-10
  1.6305000E-02   -6.4472559E-11
  1.6340001E-02    7.6705496E-11
  1.6375000E-02    9.0867057E-11
  1.6410001E-02   -4.2649932E-11
  1.6445000E-02   -1.0368120E-10
  1.6480001E-02    4.4244326E-12
  1.6515000E-02    1.0134851E-10
  1.6550001E-02    3.1634761E-11
  1.6585000E-02   -8.5050259E-11
  1.6620001E-02   -5.9710924E-11
  1.6655000E-02    5.8525837E-11
  1.6690001E-02    7.5672746E-11
  1.6725000E-02   -2.7340777E-11
  1.6759999E-02   -7.7934784E-11
  1.6795000E-02   -2.2665433E-12
  1.6829999E-02    6.7803103E-11
  1.6865000E-02    2.4734121E-11
  1.6899999E-02   -4.9191928E-11
  1.6935000E-02   -3.6428856E-11
  1.6969999E-02    2.7731975E-11
  1.7005000E-02    3.6507779E-11
  1.7039999E-02   -9.4343604E-12
  1.7075000E-02   -2.7155379E-11
  1.7109999E-02   -8.0525782E-13
  1.7145000E-02    1.3094438E-11
  1.7180000E-02    5.1448385E-13
  1.7215000E-02   -4.2899132E-13
  1.7250000E-02    9.5708936E-12
  1.7285001E-02   -4.9555646E-12
  1.7320000E-02   -2.5491989E-11
  1.7355001E-02   -9.2282486E-13
  1.7390000E-02    4.0906323E-11
  1.7425001E-02    1.8797727E-11
  1.7460000E-02   -4.8661662E-11
  1.7495001E-02   -4.5539721E-11
  1.7530000E-02    4.2777785E-11
  1.7565001E-02    7.4525199E-11
  1.7600000E-02   -2.0362212E-11
  1.7635001E-02   -9.7017339E-11
  1.7670000E-02   -1.7063207E-11
  1.7704999E-02    1.0432508E-10
  1.7740000E-02    6.3261410E-11
  1.7774999E-02   -9.0265781E-11
  1.7810000E-02   -1.0823115E-10
  1.7844999E-02    5.3311085E-11
  1.7880000E-02    1.4033649E-10
  1.7914999E-02    2.2146670E-12
  1.7950000E-02   -1.4921181E-10
  1.7984999E-02   -6.6356656E-11
  1.8020000E-02    1.2875832E-10
  1.8054999E-02    1.2532077E-10
  1.8090000E-02   -7.9423849E-11
  1.8124999E-02   -1.6457338E-10
  1.8160000E-02    9.0294924E-12
  1.8195000E-02    1.7258055E-10
  1.8230001E-02    6.8289117E-11
  1.8265000E-02   -1.4424581E-10
  1.8300001E-02   -1.3500125E-10
  1.8335000E-02    8.3045473E-11
  1.8370001E-02    1.7439822E-10
  1.8405000E-02   -1.0896177E-12
  1.8440001E-02   -1.7509405E-10
  1.8475000E-02   -8.3174904E-11
  1.8510001E-02    1.3457106E-10
  1.8545000E-02    1.4925051E-10
  1.8580001E-02   -6.0651061E-11
  1.8615000E-02   -1.7986140E-10
  1.8650001E-02   -2.9741952E-11
  1.8685000E-02    1.6581447E-10
  1.8719999E-02    1.1443745E-10
  1.8755000E-02   -1.0903368E-10
  1.8789999E-02   -1.7164037E-10
  1.8825000E-02    2.2739297E-11
  1.8859999E-02    1.8587236E-10
  1.8895000E-02    7.1531295E-11
  1.8929999E-02   -1.5254274E-10
  1.8965000E-02   -1.4946198E-10
  1.8999999E-02    7.9695167E-11
  1.9035000E-02    1.9061723E-10
  1.9069999E-02    1.3798612E-11
  1.9105000E-02   -1.8430535E-10
  1.9140000E-02   -1.0327819E-10
  1.9175000E-02    1.3283319E-10
  1.9210000E-02    1.6521054E-10
  1.9245001E-02   -5.1056097E-11
  1.9280000E-02   -1.8398671E-10
  1.9315001E-02   -3.7790882E-11
  1.9350000E-02    1.5655444E-10
  1.9385001E-02    1.0886806E-10
  1.9420000E-02   -9.3410099E-11
  1.9455001E-02   -1.4317270E-10
  1.9490000E-02    1.5492808E-11
  1.9525001E-02    1.3339473E-10
  1.9560000E-02    5.2252140E-11
  1.9595001E-02   -8.6273530E-11
  1.9630000E-02   -8.8769776E-11
  1.9664999E-02    2.0511334E-11
  1.9700000E-02    8.3741736E-11
  1.9734999E-02    3.9277154E-11
  1.9770000E-02   -4.1046090E-11
  1.9804999E-02   -7.0679698E-11
  1.9840000E-02   -2.2430474E-11
  1.9874999E-02    6.0973067E-11
  1.9910000E-02    8.2286768E-11
  1.9944999E-02   -1.1501218E-11
  1.9980000E-02   -1.1464486E-10
  2.0014999E-02   -6.2533409E-11
  2.0050000E-02    1.0411039E-10
  2.0085000E-02    1.3684352E-10
  2.0120000E-02   -4.9040581E-11
  2.0155000E-02   -1.8588132E-10
  2.0190001E-02   -3.7648756E-11
  2.0225000E-02    1.9120128E-10
  2.0260001E-02    1.3256653E-10
  2.0295000E-02   -1.4740667E-10
  2.0330001E-02   -2.0935670E-10
  2.0365000E-02    6.3638074E-11
  2.0400001E-02    2.4685889E-10
  2.0435000E-02    3.9526271E-11
  2.0470001E-02   -2.3545377E-10
  2.0505000E-02   -1.3684986E-10
  2.0540001E-02    1.7925514E-10
  2.0575000E-02    2.0620959E-10
  2.0609999E-02   -9.3698056E-11
  2.0645000E-02   -2.3437066E-10
  2.0679999E-02    4.7552240E-13
  2.0715000E-02    2.2023187E-10
  2.0749999E-02    7.9714312E-11
  2.0785000E-02   -1.7322009E-10
  2.0819999E-02   -1.3266042E-10
  2.0855000E-02    1.0865468E-10
  2.0889999E-02    1.5228663E-10
  2.0925000E-02   -4.4323930E-11
  2.0959999E-02   -1.4274350E-10
  2.0995000E-02   -6.6412782E-12
  2.1029999E-02    1.1346064E-10
  2.1065000E-02    3.6800795E-11
  2.1100000E-02   -7.5991755E-11
  2.1135001E-02   -4.3698149E-11
  2.1170000E-02    4.4229329E-11
  2.1205001E-02    3.5328258E-11
  2.1240000E-02   -2.2114392E-11
  2.1275001E-02   -1.5263950E-11
  2.1310000E-02    1.7197761E-11
  2.1345001E-02   -4.2393133E-12
  2.1380000E-02   -2.5613969E-11
  2.1415001E-02    1.7711398E-11
  2.1450000E-02    4.2789369E-11
  2.1485001E-02   -2.4972580E-11
  2.1520000E-02   -7.3056103E-11
  2.1555001E-02    8.0351949E-12
  2.1590000E-02    8.6934134E-11
  2.1624999E-02   -3.5542634E-12
  2.1660000E-02   -1.3693573E-10
  2.1694999E-02   -7.5189063E-11
  2.1730000E-02    9.0806328E-11
  2.1764999E-02    4.7780183E-11
  2.1800000E-02   -1.9014935E-10
  2.1834999E-02   -2.5079747E-10
  2.1870000E-02   -3.3732621E-11
  2.1904999E-02    6.1788956E-11
  2.1940000E-02   -2.1522388E-10
  2.1974999E-02   -4.9933563E-10
  2.2010000E-02   -3.8243486E-10
  2.2045000E-02   -1.3059984E-10
  2.2080000E-02   -2.9702879E-10
  2.2115000E-02   -8.0025137E-10
  2.2150001E-02   -1.0161753E-09
  2.2185000E-02   -8.0264206E-10
  2.2220001E-02   -7.7558554E-10
  2.2255000E-02   -1.3331451E-09
  2.2290001E-02   -2.0061934E-09
  2.2325000E-02   -2.2167204E-09
  2.2360001E-02   -2.2206248E-09
  2.2395000E-02   -2.7086053E-09
  2.2430001E-02   -3.7303605E-09
  2.2465000E-02   -4.6702979E-09
  2.2500001E-02   -5.2567803E-09
  2.2535000E-02   -5.9719332E-09
  2.2569999E-02   -7.2957009E-09
  2.2605000E-02   -9.0535792E-09
  2.2639999E-02   -1.0813267E-08
  2.2675000E-02   -1.2580530E-08
  2.2709999E-02   -1.4757334E-08
  2.2745000E-02   -1.7598463E-08
  2.2779999E-02   -2.1020123E-08
  2.2815000E-02   -2.4874408E-08
  2.2849999E-02   -2.9188909E-08
  2.2885000E-02   -3.4166824E-08
  2.2919999E-02   -4.0090491E-08
  2.2955000E-02   -4.7169742E-08
  2.2990000E-02   -5.5391308E-08
  2.3025000E-02   -6.4641142E-08
  2.3060000E-02   -7.5101873E-08
  2.3095001E-02   -8.7359211E-08
  2.3130000E-02   -1.0190083E-07
  2.3165001E-02   -1.1867863E-07
  2.3200000E-02   -1.3751257E-07
  2.3235001E-02   -1.5885787E-07
  2.3270000E-02   -1.8372775E-07
  2.3305001E-02   -2.1275656E-07
  2.3340000E-02   -2.4582164E-07
  2.3375001E-02   -2.8292757E-07
  2.3410000E-02   -3.2507174E-07
  2.3445001E-02   -3.7369804E-07
  2.3480000E-02   -4.2950603E-07
  2.3514999E-02   -4.9249252E-07
  2.3550000E-02   -5.6325155E-07
  2.3584999E-02   -6.4354538E-07
  2.3620000E-02   -7.3523256E-07
  2.3654999E-02   -8.3921265E-07
  2.3690000E-02   -9.5604901E-07
  2.3724999E-02   -1.0873183E-06
  2.3760000E-02   -1.2356240E-06
  2.3794999E-02   -1.4033103E-06
  2.3830000E-02   -1.5918785E-06
  2.3864999E-02   -1.8029539E-06
  2.3900000E-02   -2.0393131E-06
  2.3934999E-02   -2.3045152E-06
  2.3970000E-02   -2.6018095E-06
  2.4005000E-02   -2.9339524E-06
  2.4040001E-02   -3.3041306E-06
  2.4075000E-02   -3.7166692E-06
  2.4110001E-02   -4.1766048E-06
  2.4145000E-02   -4.6888363E-06
  2.4180001E-02   -5.2580758E-06
  2.4215000E-02   -5.8896530E-06
  2.4250001E-02   -6.5900290E-06
  2.4285000E-02   -7.3663664E-06
  2.4320001E-02   -8.2258839E-06
  2.4355000E-02   -9.1759548E-06
  2.4390001E-02   -1.0224764E-05
  2.4425000E-02   -1.1381560E-05
  2.4460001E-02   -1.2656345E-05
  2.4495000E-02   -1.4059603E-05
  2.4529999E-02   -1.5602460E-05
  2.4565000E-02   -1.7296881E-05
  2.4599999E-02   -1.9155823E-05
  2.4635000E-02   -2.1193358E-05
  2.4669999E-02   -2.3424649E-05
  2.4705000E-02   -2.5865636E-05
  2.4739999E-02   -2.8532932E-05
  2.4775000E-02   -3.1444284E-05
  2.4809999E-02   -3.4619130E-05
  2.4845000E-02   -3.8078248E-05
  2.4879999E-02   -4.1842999E-05
  2.4915000E-02   -4.5935449E-05
  2.4950000E-02   -5.0379382E-05
  2.4985000E-02   -5.5200697E-05
  2.5020000E-02   -6.0426577E-05
  2.5055001E-02   -6.6084722E-05
  2.5090000E-02   -7.2204108E-05
  2.5125001E-02   -7.8815967E-05
  2.5160000E-02   -8.5953630E-05
  2.5195001E-02   -9.3651477E-05
  2.5230000E-02   -1.0194461E-04
  2.5265001E-02   -1.1086966E-04
  2.5300000E-02   -1.2046570E-04
  2.5335001E-02   -1.3077358E-04
  2.5370000E-02   -1.4183471E-04
  2.5405001E-02   -1.5369135E-04
  2.5440000E-02   -1.6638769E-04
  2.5474999E-02   -1.7997010E-04
  2.5510000E-02   -1.9448622E-04
  2.5544999E-02   -2.0998425E-04
  2.5580000E-02   -2.2651325E-04
  2.5614999E-02   -2.4412420E-04
  2.5650000E-02   -2.6286975E-04
  2.5684999E-02   -2.8280323E-04
  2.5720000E-02   -3.0397810E-04
  2.5754999E-02   -3.2644870E-04
  2.5790000E-02   -3.5027016E-04
  2.5824999E-02   -3.7549814E-04
  2.5860000E-02   -4.0218804E-04
  2.5895000E-02   -4.3039524E-04
  2.5930000E-02   -4.6017455E-04
  2.5965000E-02   -4.9158023E-04
  2.6000001E-02   -5.2466610E-04
  2.6035000E-02   -5.5948581E-04
  2.6070001E-02   -5.9609098E-04
  2.6105000E-02   -6.3453132E-04
  2.6140001E-02   -6.7485461E-04
  2.6175000E-02   -7.1710773E-04
  2.6210001E-02   -7.6133542E-04
  2.6245000E-02   -8.0757856E-04
  2.6280001E-02   -8.5587398E-04
  2.6315000E-02   -9.0625533E-04
  2.6350001E-02   -9.5875282E-04
  2.6385000E-02   -1.0133923E-03
  2.6419999E-02   -1.0701942E-03
  2.6455000E-02   -1.1291719E-03
  2.6489999E-02   -1.1903350E-03
  2.6525000E-02   -1.2536868E-03
  2.6559999E-02   -1.3192239E-03
  2.6595000E-02   -1.3869343E-03
  2.6629999E-02   -1.4567996E-03
  2.6665000E-02   -1.5287939E-03
  2.6699999E-02   -1.6028832E-03
  2.6735000E-02   -1.6790234E-03
  2.6769999E-02   -1.7571613E-03
  2.6805000E-02   -1.8372334E-03
  2.6839999E-02   -1.9191660E-03
  2.6875000E-02   -2.0028770E-03
  2.6910000E-02   -2.0882711E-03
  2.6945001E-02   -2.1752408E-03
  2.6980000E-02   -2.2636675E-03