 -4.8000002E-03    1.0000000E-24
 -4.7650002E-03    1.0000002E-24
 -4.7300002E-03    1.0000001E-24
 -4.6950001E-03    1.0000000E-24
 -4.6600001E-03    1.0000001E-24
 -4.6250001E-03    1.0000002E-24
 -4.5900000E-03    1.0000002E-24
 -4.5550000E-03    1.0000000E-24
 -4.5200000E-03    9.9999982E-25
 -4.4849999E-03    1.0000002E-24
 -4.4499999E-03    1.0000001E-24
 -4.4149999E-03    9.9999982E-25
 -4.3799998E-03    9.9999992E-25
 -4.3449998E-03    1.0000005E-24
 -4.3100002E-03    1.0000005E-24
 -4.2750002E-03    1.0000000E-24
 -4.2400002E-03    9.9999982E-25
 -4.2050001E-03    1.0000000E-24
 -4.1700001E-03    1.0000001E-24
 -4.1350001E-03    9.9999982E-25
 -4.1000000E-03    1.0000000E-24
 -4.0650000E-03    1.0000001E-24
 -4.0300000E-03    1.0000000E-24
 -3.9949999E-03    9.9999992E-25
 -3.9599999E-03    9.9999972E-25
 -3.9249999E-03    9.9999982E-25
 -3.8900001E-03    1.0000002E-24
 -3.8550000E-03    1.0000003E-24
 -3.8200000E-03    1.0000002E-24
 -3.7849999E-03    1.0000003E-24
 -3.7499999E-03    1.0000001E-24
 -3.7150001E-03    9.9999992E-25
 -3.6800001E-03    1.0000003E-24
 -3.6450000E-03    1.0000001E-24
 -3.6100000E-03    9.9999982E-25
 -3.5750000E-03    1.0000001E-24
 -3.5399999E-03    1.0000002E-24
 -3.5049999E-03    9.9999963E-25
 -3.4700001E-03    1.0000002E-24
 -3.4350001E-03    1.0000005E-24
 -3.4000000E-03    9.9999953E-25
 -3.3650000E-03    9.9999963E-25
 -3.3300000E-03    1.0000006E-24
 -3.2949999E-03    1.0000002E-24
 -3.2599999E-03    9.9999963E-25
 -3.2250001E-03    1.0000002E-24
 -3.1900001E-03    1.0000010E-24
 -3.1550000E-03    9.9999953E-25
 -3.1200000E-03    9.9999923E-25
 -3.0850000E-03    1.0000009E-24
 -3.0499999E-03    1.0000014E-24
 -3.0149999E-03    9.9999913E-25
 -2.9800001E-03    9.9999884E-25
 -2.9450001E-03    1.0000012E-24
 -2.9100000E-03    1.0000007E-24
 -2.8750000E-03    9.9999854E-25
 -2.8400000E-03    1.0000002E-24
 -2.8049999E-03    1.0000017E-24
 -2.7699999E-03    9.9999972E-25
 -2.7350001E-03    9.9999884E-25
 -2.7000001E-03    1.0000008E-24
 -2.6650000E-03    1.0000015E-24
 -2.6300000E-03    9.9999963E-25
 -2.5950000E-03    9.9999933E-25
 -2.5599999E-03    1.0000003E-24
 -2.5249999E-03    9.9999963E-25
 -2.4900001E-03    9.9999943E-25
 -2.4550001E-03    1.0000004E-24
 -2.4200000E-03    1.0000009E-24
 -2.3850000E-03    1.0000001E-24
 -2.3500000E-03    9.9999943E-25
 -2.3149999E-03    9.9999963E-25
 -2.2799999E-03    9.9999982E-25
 -2.2450001E-03    1.0000000E-24
 -2.2100001E-03    1.0000003E-24
 -2.1750000E-03    1.0000002E-24
 -2.1400000E-03    1.0000002E-24
 -2.1050000E-03    1.0000003E-24
 -2.0699999E-03    1.0000009E-24
 -2.0349999E-03    1.0000004E-24
 -2.0000001E-03    9.9999982E-25
 -1.9650001E-03    9.9999992E-25
 -1.9300000E-03    9.9999963E-25
 -1.8950000E-03    9.9999933E-25
 -1.8600000E-03    1.0000003E-24
 -1.8250000E-03    1.0000008E-24
 -1.7900000E-03    1.0000003E-24
 -1.7550000E-03    9.9999943E-25
 -1.7199999E-03    9.9999933E-25
 -1.6850000E-03    1.0000000E-24
 -1.6500000E-03    1.0000001E-24
 -1.6150000E-03    9.9999972E-25
 -1.5800000E-03    1.0000003E-24
 -1.5450000E-03    1.0000009E-24
 -1.5100000E-03    1.0000003E-24
 -1.4750001E-03    1.0000004E-24
 -1.4400000E-03    9.9999982E-25
 -1.4050000E-03    9.9999953E-25
 -1.3700000E-03    1.0000008E-24
 -1.3350000E-03    9.9999992E-25
 -1.3000000E-03    9.9999815E-25
 -1.2650000E-03    9.9999923E-25
 -1.2300001E-03    1.0000007E-24
 -1.1950000E-03    1.0000003E-24
 -1.1600000E-03    1.0000002E-24
 -1.1250000E-03    1.0000011E-24
 -1.0900000E-03    1.0000008E-24
 -1.0550000E-03    9.9999982E-25
 -1.0200000E-03    9.9999972E-25
 -9.8500005E-04    9.9999923E-25
 -9.5000002E-04    9.9999963E-25
 -9.1499998E-04    1.0000010E-24
 -8.8000001E-04    1.0000002E-24
 -8.4499997E-04    9.9999884E-25
 -8.1000000E-04    1.0000005E-24
 -7.7500002E-04    1.0000011E-24
 -7.3999999E-04    9.9999893E-25
 -7.0500001E-04    9.9999903E-25
 -6.6999998E-04    1.0000013E-24
 -6.3500000E-04    1.0000011E-24
 -6.0000003E-04    9.9999953E-25
 -5.6499999E-04    9.9999992E-25
 -5.3000002E-04    1.0000004E-24
 -4.9499999E-04    9.9999972E-25
 -4.6000001E-04    1.0000000E-24
 -4.2500001E-04    1.0000005E-24
 -3.9000000E-04    1.0000001E-24
 -3.5500000E-04    9.9999963E-25
 -3.1999999E-04    1.0000000E-24
 -2.8499999E-04    9.9999982E-25
 -2.5000001E-04    1.0000001E-24
 -2.1499999E-04    1.0000005E-24
 -1.8000000E-04    9.9999992E-25
 -1.4500000E-04    9.9999982E-25
 -1.1000000E-04    1.0000003E-24
 -7.5000004E-05    1.0000002E-24
 -3.9999999E-05    9.9999972E-25
 -4.9999999E-06    9.9999982E-25
  2.9999999E-05    1.0000002E-24
  6.5000000E-05    1.0000002E-24
  9.9999997E-05    1.0000005E-24
  1.3499999E-04    1.0000009E-24
  1.7000000E-04    1.0000002E-24
  2.0500000E-04    9.9999913E-25
  2.3999999E-04    9.9999923E-25
  2.7500000E-04    9.9999992E-25
  3.1000000E-04    1.0000000E-24
  3.4500001E-04    1.0000001E-24
  3.8000001E-04    1.0000008E-24
  4.1499999E-04    1.0000004E-24
  4.4999999E-04    9.9999953E-25
  4.8500000E-04    1.0000004E-24
  5.2000000E-04    1.0000006E-24
  5.5499998E-04    9.9999933E-25
  5.9000001E-04    1.0000001E-24
  6.2499999E-04    1.0000014E-24
  6.6000002E-04    9.9999963E-25
  6.9500000E-04    9.9999874E-25
  7.3000003E-04    1.0000009E-24
  7.6500000E-04    1.0000005E-24
  7.9999998E-04    9.9999805E-25
  8.3500001E-04    1.0000006E-24
  8.6999999E-04    1.0000031E-24
  9.0500002E-04    9.9999982E-25
  9.4000000E-04    9.9999834E-25
  9.7499997E-04    1.0000014E-24
  1.0100000E-03    1.0000004E-24
  1.0450000E-03    9.9999696E-25
  1.0800000E-03    9.9999943E-25
  1.1150000E-03    1.0000018E-24
  1.1500000E-03    1.0000003E-24
  1.1849999E-03    1.0000003E-24
  1.2200000E-03    1.0000010E-24
  1.2550000E-03    9.9999972E-25
  1.2900000E-03    9.9999972E-25
  1.3250000E-03    1.0000012E-24
  1.3600000E-03    9.9999953E-25
  1.3950000E-03    9.9999795E-25
  1.4299999E-03    1.0000007E-24
  1.4650000E-03    1.0000023E-24
  1.5000000E-03    9.9999933E-25
  1.5350000E-03    9.9999874E-25
  1.5700000E-03    1.0000023E-24
  1.6050000E-03    1.0000013E-24
  1.6400000E-03    9.9999736E-25
  1.6749999E-03    9.9999943E-25
  1.7100000E-03    1.0000025E-24
  1.7450000E-03    9.9999982E-25
  1.7800000E-03    9.9999854E-25
  1.8150000E-03    1.0000010E-24
  1.8500000E-03    1.0000005E-24
  1.8850000E-03    9.9999844E-25
  1.9200000E-03    1.0000002E-24
  1.9550000E-03    1.0000016E-24
  1.9900000E-03    1.0000001E-24
  2.0250001E-03    9.9999972E-25
  2.0600001E-03    1.0000010E-24
  2.0949999E-03    1.0000001E-24
  2.1299999E-03    9.9999963E-25
  2.1650000E-03    1.0000010E-24
  2.2000000E-03    1.0000001E-24
  2.2350000E-03    9.9999903E-25
  2.2700001E-03    1.0000015E-24
  2.3050001E-03    1.0000012E-24
  2.3399999E-03    9.9999785E-25
  2.3749999E-03    9.9999844E-25
  2.4100000E-03    1.0000016E-24
  2.4450000E-03    1.0000005E-24
  2.4800000E-03    9.9999854E-25
  2.5150001E-03    1.0000010E-24
  2.5500001E-03    1.0000024E-24
  2.5849999E-03    9.9999844E-25
  2.6199999E-03    9.9999824E-25
  2.6550000E-03    1.0000025E-24
  2.6900000E-03    1.0000002E-24
  2.7250000E-03    9.9999657E-25
  2.7600001E-03    1.0000012E-24
  2.7950001E-03    1.0000033E-24
  2.8299999E-03    9.9999765E-25
  2.8649999E-03    9.9999795E-25
  2.9000000E-03    1.0000024E-24
  2.9350000E-03    1.0000000E-24
  2.9700000E-03    9.9999824E-25
  3.0050001E-03    1.0000019E-24
  3.0400001E-03    1.0000021E-24
  3.0749999E-03    9.9999913E-25
  3.1099999E-03    1.0000001E-24
  3.1450000E-03    1.0000001E-24
  3.1800000E-03    9.9999815E-25
  3.2150000E-03    1.0000001E-24
  3.2500001E-03    1.0000020E-24
  3.2850001E-03    9.9999913E-25
  3.3199999E-03    9.9999864E-25
  3.3549999E-03    1.0000018E-24
  3.3900000E-03    1.0000007E-24
  3.4250000E-03    9.9999726E-25
  3.4600000E-03    9.9999982E-25
  3.4950001E-03    1.0000034E-24
  3.5300001E-03    1.0000007E-24
  3.5649999E-03    9.9999815E-25
  3.5999999E-03    1.0000004E-24
  3.6350000E-03    1.0000003E-24
  3.6700000E-03    9.9999765E-25
  3.7050000E-03    9.9999834E-25
  3.7400001E-03    1.0000008E-24
  3.7750001E-03    1.0000010E-24
  3.8099999E-03    1.0000009E-24
  3.8449999E-03    1.0000012E-24
  3.8800000E-03    9.9999992E-25
  3.9149998E-03    9.9999893E-25
  3.9499998E-03    9.9999972E-25
  3.9849998E-03    1.0000003E-24
  4.0199999E-03    1.0000007E-24
  4.0549999E-03    1.0000017E-24
  4.0899999E-03    1.0000012E-24
  4.1250000E-03    9.9999854E-25
  4.1600000E-03    9.9999815E-25
  4.1950000E-03    1.0000009E-24
  4.2300001E-03    1.0000011E-24
  4.2650001E-03    9.9999834E-25
  4.3000001E-03    9.9999893E-25
  4.3350002E-03    1.0000017E-24
  4.3700002E-03    1.0000010E-24
  4.4049998E-03    9.9999785E-25
  4.4399998E-03    9.9999874E-25
  4.4749998E-03    1.0000042E-24
  4.5099999E-03    1.0000049E-24
  4.5449999E-03    9.9999391E-25
  4.5799999E-03    9.9998730E-25
  4.6150000E-03    1.0000057E-24
  4.6500000E-03    1.0000228E-24
  4.6850001E-03    9.9999430E-25
  4.7200001E-03    9.9995969E-25
  4.7550001E-03    1.0000053E-24
  4.7900002E-03    1.0000733E-24
  4.8250002E-03    1.0000037E-24
  4.8600002E-03    9.9987163E-25
  4.8949998E-03    9.9996748E-25
  4.9299998E-03    1.0002174E-24
  4.9649999E-03    1.0001021E-24
  4.9999999E-03    9.9964513E-25
  5.0349999E-03    9.9974453E-25
  5.0700000E-03    1.0005552E-24
  5.1050000E-03    1.0005691E-24
  5.1400000E-03    9.9917684E-25
  5.1750001E-03    9.9882570E-25
  5.2100001E-03    1.0011345E-24
  5.2450001E-03    1.0022868E-24
  5.2800002E-03    9.9860807E-25
  5.3150002E-03    9.9575674E-25
  5.3500002E-03    1.0013415E-24
  5.3849998E-03    1.0075404E-24
  5.4199998E-03    9.9957403E-25
  5.4549999E-03    9.8714385E-25
  5.4899999E-03    9.9753434E-25
  5.5249999E-03    1.0210073E-24
  5.5600000E-03    1.0093918E-24
  5.5950000E-03    9.6723784E-25
  5.6300000E-03    9.7606006E-25
  5.6650001E-03    1.0483731E-24
  5.7000001E-03    1.0520453E-24
  5.7350001E-03    9.3344945E-25
  5.7700002E-03    8.9701847E-25
  5.8050002E-03    1.0825230E-24
  5.8400002E-03    1.1903713E-24
  5.8749998E-03    9.1540731E-25
  5.9099998E-03    6.6728975E-25
  5.9449999E-03    1.0484937E-24
  5.9799999E-03    1.5524477E-24
  6.0149999E-03    1.0713101E-24
  6.0500000E-03    1.2824058E-25
  6.0850000E-03    6.4594884E-25
  6.1200000E-03    2.3019024E-24
  6.1550001E-03    1.9288239E-24
  6.1900001E-03   -8.2125789E-25
  6.2250001E-03   -9.9283351E-25
  6.2600002E-03    3.3350586E-24
  6.2950002E-03    4.8268087E-24
  6.3299998E-03   -1.6075359E-24
  6.3649998E-03   -5.7966584E-24
  6.3999998E-03    3.1560942E-24
  6.4349999E-03    1.2321064E-23
  6.4699999E-03    9.0163774E-25
  6.5049999E-03   -1.6770500E-23
  6.5400000E-03   -4.0492136E-24
  6.5750000E-03    2.7244662E-23
  6.6100000E-03    1.6605506E-23
  6.6450001E-03   -3.5152658E-23
  6.6800001E-03   -3.3940043E-23
  6.7150001E-03    4.6500274E-23
  6.7500002E-03    6.8557358E-23
  6.7850002E-03   -4.8779971E-23
  6.8199998E-03   -1.1784451E-22
  6.8549998E-03    4.1377550E-23
  6.8899998E-03    1.9514074E-22
  6.9249999E-03   -1.4968525E-24
  6.9599999E-03   -2.9561981E-22
  6.9949999E-03   -8.6218565E-23
  7.0300000E-03    4.2428918E-22
  7.0650000E-03    2.6384219E-22
  7.1000000E-03   -5.5727230E-22
  7.1350001E-03   -5.6902024E-22
  7.1700001E-03    6.6351401E-22
  7.2050001E-03    1.0645910E-21
  7.2400002E-03   -6.5839957E-22
  7.2750002E-03   -1.7979980E-21
  7.3099998E-03    4.1757720E-22
  7.3449998E-03    2.8141397E-21
  7.3799998E-03    2.7490553E-22
  7.4149999E-03   -4.0882049E-21
  7.4499999E-03   -1.7110592E-21
  7.4850000E-03    5.5003310E-21
  7.5200000E-03    4.2943134E-21
  7.5550000E-03   -6.7189434E-21
  7.5900001E-03   -8.4818260E-21
  7.6250001E-03    7.1191299E-21
  7.6600001E-03    1.4737875E-20
  7.6950002E-03   -5.6151197E-21
  7.7300002E-03   -2.3339214E-20
  7.7650002E-03    5.5618657E-22
  7.7999998E-03    3.4123026E-20
  7.8349998E-03    1.0396078E-20
  7.8699999E-03   -4.6014755E-20
  7.9049999E-03   -3.0204222E-20
  7.9399999E-03    5.6442785E-20
  7.9750000E-03    6.2213430E-20
  8.0100000E-03   -6.0529109E-20
  8.0450000E-03   -1.0944257E-19
  8.0800001E-03    5.0269995E-20
  8.1150001E-03    1.7334119E-19
  8.1500001E-03   -1.3774459E-20
  8.1850002E-03   -2.5168495E-19
  8.2200002E-03   -6.4954170E-20
  8.2550002E-03    3.3559865E-19
  8.2900003E-03    2.0527695E-19
  8.3250003E-03   -4.0559530E-19
  8.3600003E-03   -4.2732205E-19
  8.3950004E-03    4.2708320E-19
  8.4300004E-03    7.4673513E-19
  8.4650004E-03   -3.4603170E-19
  8.5000005E-03   -1.1656635E-18
  8.5349996E-03    8.6429647E-20
  8.5699996E-03    1.6593731E-18
  8.6049996E-03    4.4820146E-19
  8.6399997E-03   -2.1582540E-18
  8.6749997E-03   -1.3657954E-18
  8.7099997E-03    2.5265463E-18
  8.7449998E-03    2.7652623E-18
  8.7799998E-03   -2.5409173E-18
  8.8149998E-03   -4.7001639E-18
  8.8499999E-03    1.8751667E-18
  8.8849999E-03    7.1232551E-18
  8.9199999E-03   -1.0062291E-19
  8.9550000E-03   -9.8110255E-18
  8.9900000E-03   -3.2840987E-18
  9.0250000E-03    1.2272789E-17
  9.0600001E-03    8.7775667E-18
  9.0950001E-03   -1.3656929E-17
  9.1300001E-03   -1.6737141E-17
  9.1650002E-03    1.2678182E-17
  9.2000002E-03    2.7164297E-17
  9.2350002E-03   -7.6033573E-18
  9.2700003E-03   -3.9410650E-17
  9.3050003E-03   -3.6530157E-18
  9.3400003E-03    5.1821687E-17
  9.3750004E-03    2.3261219E-17
  9.4100004E-03   -6.1366326E-17
  9.4450004E-03   -5.2974989E-17
  9.4799995E-03    6.3341197E-17
  9.5149996E-03    9.3349218E-17
  9.5499996E-03   -5.1284755E-17
  9.5849996E-03   -1.4266989E-16
  9.6199997E-03    1.7287656E-17
  9.6549997E-03    1.9566368E-16
  9.6899997E-03    4.7088841E-17
  9.7249998E-03   -2.4216336E-16
  9.7599998E-03   -1.4907941E-16
  9.7949998E-03    2.6604460E-16
  9.8299999E-03    2.9201858E-16
  9.8649999E-03   -2.4490306E-16
  9.8999999E-03   -4.7169306E-16
  9.9350000E-03    1.5108627E-16
  9.9700000E-03    6.7200375E-16
  1.0005000E-02    4.5232628E-17
  1.0040000E-02   -8.6055959E-16
  1.0075000E-02   -3.7031942E-16
  1.0110000E-02    9.8526862E-16
  1.0145000E-02    8.3809543E-16
  1.0180000E-02   -9.7345272E-16
  1.0215000E-02   -1.4384712E-15
  1.0250000E-02    7.3540158E-16
  1.0285000E-02    2.1238009E-15
  1.0320000E-02   -1.7434570E-16
  1.0355000E-02   -2.7955249E-15
  1.0390000E-02   -7.9539279E-16
  1.0425000E-02    3.2944584E-15
  1.0460000E-02    2.2213691E-15
  1.0495000E-02   -3.3993179E-15
  1.0530000E-02   -4.0781100E-15
  1.0565000E-02    2.8389499E-15
  1.0600000E-02    6.2277665E-15
  1.0635000E-02   -1.3236906E-15
  1.0670000E-02   -8.3831825E-15
  1.0705000E-02   -1.4001162E-15
  1.0740000E-02    1.0083509E-14
  1.0775000E-02    5.4717096E-15
  1.0810000E-02   -1.0695350E-14
  1.0845000E-02   -1.0818161E-14
  1.0880000E-02    9.4539338E-15
  1.0915000E-02    1.7049037E-14
  1.0950000E-02   -5.5571883E-15
  1.0985000E-02   -2.3363368E-14
  1.1020000E-02   -1.6790083E-15
  1.1055000E-02    2.8497539E-14
  1.1090000E-02    1.2607992E-14
  1.1125000E-02   -3.0747445E-14
  1.1160000E-02   -2.6997364E-14
  1.1195000E-02    2.8099881E-14
  1.1230000E-02    4.3769587E-14
  1.1265000E-02   -1.8500424E-14
  1.1300000E-02   -6.0791819E-14
  1.1335000E-02    2.6707841E-16
  1.1370000E-02    7.4788991E-14
  1.1405000E-02    2.7368339E-14
  1.1440000E-02   -8.1457946E-14
  1.1475000E-02   -6.3647092E-14
  1.1510000E-02    7.5859214E-14
  1.1545000E-02    1.0569933E-13
  1.1580000E-02   -5.3128919E-14
  1.1615000E-02   -1.4812912E-13
  1.1650000E-02    9.5118293E-15
  1.1685000E-02    1.8293769E-13
  1.1720000E-02    5.6364361E-14
  1.1755000E-02   -1.9995118E-13
  1.1790000E-02   -1.4213259E-13
  1.1825000E-02    1.8789363E-13
  1.1860000E-02    2.4050431E-13
  1.1895000E-02   -1.3615384E-13
  1.1930000E-02   -3.3858330E-13
  1.1965000E-02    3.7169422E-14
  1.2000000E-02    4.1802803E-13
  1.2035000E-02    1.1080520E-13
  1.2070000E-02   -4.5638070E-13
  1.2105000E-02   -3.0096937E-13
  1.2140000E-02    4.2975928E-13
  1.2175000E-02    5.1586144E-13
  1.2210000E-02   -3.1689793E-13
  1.2245000E-02   -7.2652859E-13
  1.2280000E-02    1.0422267E-13
  1.2315000E-02    8.9363987E-13
  1.2350000E-02    2.0864361E-13
  1.2385000E-02   -9.7104280E-13
  1.2420000E-02   -6.0395216E-13
  1.2455000E-02    9.1191551E-13
  1.2490000E-02    1.0425807E-12
  1.2525000E-02   -6.7726814E-13
  1.2560000E-02   -1.4637845E-12
  1.2595000E-02    2.4583647E-13
  1.2630000E-02    1.7889420E-12
  1.2665000E-02    3.7600367E-13
  1.2700000E-02   -1.9299161E-12
  1.2735000E-02   -1.1462732E-12
  1.2770000E-02    1.8019038E-12
  1.2805000E-02    1.9835153E-12
  1.2840000E-02   -1.3397341E-12
  1.2875000E-02   -2.7690033E-12
  1.2910000E-02    5.1550805E-13
  1.2945000E-02    3.3564540E-12
  1.2980000E-02    6.4525794E-13
  1.3015000E-02   -3.5895850E-12
  1.3050000E-02   -2.0525144E-12
  1.3085000E-02    3.3264929E-12
  1.3120000E-02    3.5489975E-12
  1.3155000E-02   -2.4682376E-12
  1.3190000E-02   -4.9187308E-12
  1.3225000E-02    9.8753948E-13
  1.3260000E-02    5.9082210E-12
  1.3295000E-02    1.0476213E-12
  1.3330000E-02   -6.2596733E-12
  1.3365000E-02   -3.4609405E-12
  1.3400000E-02    5.7533275E-12
  1.3435000E-02    5.9703774E-12
  1.3470000E-02   -4.2535485E-12
  1.3505000E-02   -8.2093889E-12
  1.3540000E-02    1.7514962E-12
  1.3575000E-02    9.7675999E-12
  1.3610000E-02    1.6039493E-12
  1.3645000E-02   -1.0248183E-11
  1.3680000E-02   -5.4947900E-12
  1.3715000E-02    9.3358316E-12
  1.3750000E-02    9.4486415E-12
  1.3785000E-02   -6.8655337E-12
  1.3820000E-02   -1.2882133E-11
  1.3855000E-02    2.8811526E-12
  1.3890000E-02    1.5172238E-11
  1.3925000E-02    2.3289816E-12
  1.3960000E-02   -1.5748349E-11
  1.3995000E-02   -8.2295533E-12
  1.4030000E-02    1.4194207E-11
  1.4065000E-02    1.4076363E-11
  1.4100000E-02   -1.0343859E-11
  1.4135000E-02   -1.8995991E-11
  1.4170000E-02    4.3547275E-12
  1.4205000E-02    2.2102060E-11
  1.4240000E-02    3.2595265E-12
  1.4275000E-02   -2.2634773E-11
  1.4310000E-02   -1.1649444E-11
  1.4345000E-02    2.0104333E-11
  1.4380000E-02    1.9709663E-11
  1.4415000E-02   -1.4414053E-11
  1.4450000E-02   -2.6215363E-11
  1.4485000E-02    5.9383535E-12
  1.4520000E-02    3.0001519E-11
  1.4555000E-02    4.4665873E-12
  1.4590000E-02   -3.0160756E-11
  1.4625000E-02   -1.5532417E-11
  1.4660000E-02    2.6227354E-11
  1.4695000E-02    2.5729162E-11
  1.4730000E-02   -1.8312407E-11
  1.4765000E-02   -3.3483227E-11
  1.4800000E-02    7.1573893E-12
  1.4835000E-02    3.7432620E-11
  1.4870000E-02    5.9156651E-12
  1.4905000E-02   -3.6677994E-11
  1.4940000E-02   -1.9164391E-11
  1.4975000E-02    3.0980760E-11
  1.5010000E-02    3.0679733E-11
  1.5045000E-02   -2.0863582E-11
  1.5080000E-02   -3.8697785E-11
  1.5115000E-02    7.5809602E-12
  1.5150000E-02    4.1913358E-11
  1.5185000E-02    7.0472434E-12
  1.5220000E-02   -3.9736586E-11
  1.5255000E-02   -2.0923516E-11
  1.5290000E-02    3.2432196E-11
  1.5325000E-02    3.2033660E-11
  1.5360000E-02   -2.1103393E-11
  1.5395000E-02   -3.8813109E-11
  1.5430000E-02    7.5091947E-12
  1.5465000E-02    4.0441046E-11
  1.5500000E-02    6.2572582E-12
  1.5535000E-02   -3.6994463E-11
  1.5570000E-02   -1.8168083E-11
  1.5605000E-02    2.9420091E-11
  1.5640000E-02    2.6654508E-11
  1.5675001E-02   -1.9321671E-11
  1.5710000E-02   -3.0906604E-11
  1.5745001E-02    8.6014364E-12
  1.5780000E-02    3.1004428E-11
  1.5814999E-02    9.6554275E-13
  1.5850000E-02   -2.7843327E-11
  1.5884999E-02   -8.1233709E-12
  1.5920000E-02    2.2865983E-11
  1.5954999E-02    1.2397978E-11
  1.5990000E-02   -1.7659759E-11
  1.6024999E-02   -1.4158303E-11
  1.6060000E-02    1.3519878E-11
  1.6094999E-02    1.4454583E-11
  1.6130000E-02   -1.1090054E-11
  1.6164999E-02   -1.4666797E-11
  1.6200000E-02    1.0181986E-11
  1.6235000E-02    1.6053709E-11
  1.6270000E-02   -9.8276162E-12
  1.6305000E-02   -1.9319157E-11
  1.6340001E-02    8.5586200E-12
  1.6375000E-02    2.4310021E-11
  1.6410001E-02   -4.8558874E-12
  1.6445000E-02   -2.9935974E-11
  1.6480001E-02   -2.3346223E-12
  1.6515000E-02    3.4363831E-11
  1.6550001E-02    1.3169361E-11
  1.6585000E-02   -3.5443606E-11
  1.6620001E-02   -2.6677299E-11
  1.6655000E-02    3.1265789E-11
  1.6690001E-02    4.0795804E-11
  1.6725000E-02   -2.0726676E-11
  1.6759999E-02   -5.2678948E-11
  1.6795000E-02    3.9840822E-12
  1.6829999E-02    5.9252110E-11
  1.6865000E-02    1.7328125E-11
  1.6899999E-02   -5.7910399E-11
  1.6935000E-02   -4.0221101E-11
  1.6969999E-02    4.7186272E-11
  1.7005000E-02    6.0790692E-11
  1.7039999E-02   -2.7233511E-11
  1.7075000E-02   -7.4877077E-11
  1.7109999E-02    6.1153001E-14
  1.7145000E-02    7.8869862E-11
  1.7180000E-02    3.0561106E-11
  1.7215000E-02   -7.0552598E-11
  1.7250000E-02   -5.9604419E-11
  1.7285001E-02    4.9775423E-11
  1.7320000E-02    8.1637745E-11
  1.7355001E-02   -1.8750753E-11
  1.7390000E-02   -9.1833513E-11
  1.7425001E-02   -1.8054877E-11
  1.7460000E-02    8.6983594E-11
  1.7495001E-02    5.4439207E-11
  1.7530000E-02   -6.6424567E-11
  1.7565001E-02   -8.3483997E-11
  1.7600000E-02    3.2585750E-11
  1.7635001E-02    9.8974454E-11
  1.7670000E-02    9.1704621E-12
  1.7704999E-02   -9.6781319E-11
  1.7740000E-02   -5.1357422E-11
  1.7774999E-02    7.5892834E-11
  1.7810000E-02    8.5583804E-11
  1.7844999E-02   -3.9071892E-11
  1.7880000E-02   -1.0421392E-10
  1.7914999E-02   -7.1415924E-12
  1.7950000E-02    1.0233482E-10
  1.7984999E-02    5.3566662E-11
  1.8020000E-02   -7.9229429E-11
  1.8054999E-02   -9.0407681E-11
  1.8090000E-02    3.8713154E-11
  1.8124999E-02    1.0931094E-10
  1.8160000E-02    1.1388439E-11
  1.8195000E-02   -1.0519348E-10
  1.8230001E-02   -6.0403377E-11
  1.8265000E-02    7.7959174E-11
  1.8300001E-02    9.7134516E-11
  1.8335000E-02   -3.3184989E-11
  1.8370001E-02   -1.1299056E-10
  1.8405000E-02   -1.9229696E-11
  1.8440001E-02    1.0421616E-10
  1.8475000E-02    6.7603222E-11
  1.8510001E-02   -7.2532508E-11
  1.8545000E-02   -1.0084315E-10
  1.8580001E-02    2.5092112E-11
  1.8615000E-02    1.1103084E-10
  1.8650001E-02    2.6580510E-11
  1.8685000E-02   -9.6238850E-11
  1.8719999E-02   -6.9911264E-11
  1.8755000E-02    6.1286524E-11
  1.8789999E-02    9.5344094E-11
  1.8825000E-02   -1.5488427E-11
  1.8859999E-02   -9.8246022E-11
  1.8895000E-02   -3.0013797E-11
  1.8929999E-02    7.9255137E-11
  1.8965000E-02    6.4217076E-11
  1.8999999E-02   -4.4839275E-11
  1.9035000E-02   -7.9549943E-11
  1.9069999E-02    5.8575362E-12
  1.9105000E-02    7.5220254E-11
  1.9140000E-02    2.7329116E-11
  1.9175000E-02   -5.6239267E-11
  1.9210000E-02   -4.8505987E-11
  1.9245001E-02    2.9618988E-11
  1.9280000E-02    5.5113743E-11
  1.9315001E-02   -3.0020613E-12
  1.9350000E-02   -4.8068171E-11
  1.9385001E-02   -1.5986773E-11
  1.9420000E-02    3.3283688E-11
  1.9455001E-02    2.3855759E-11
  1.9490000E-02   -1.8953662E-11
  1.9525001E-02   -2.3721504E-11
  1.9560000E-02    9.2744493E-12
  1.9595001E-02    2.0615459E-11
  1.9630000E-02   -4.0386687E-12
  1.9664999E-02   -1.7505674E-11
  1.9700000E-02    2.4305391E-12
  1.9734999E-02    1.7344560E-11
  1.9770000E-02   -1.7747040E-12
  1.9804999E-02   -2.2401841E-11
  1.9840000E-02   -4.3294621E-12
  1.9874999E-02    2.8753387E-11
  1.9910000E-02    1.9960577E-11
  1.9944999E-02   -2.7126603E-11
  1.9980000E-02   -3.9935610E-11
  2.0014999E-02    1.3824621E-11
  2.0050000E-02    5.8207036E-11
  2.0085000E-02    1.2459963E-11
  2.0120000E-02   -6.7030027E-11
  2.0155000E-02   -4.8259490E-11
  2.0190001E-02    6.2006469E-11
  2.0225000E-02    9.3608891E-11
  2.0260001E-02   -2.6254755E-11
  2.0295000E-02   -1.2248588E-10
  2.0330001E-02   -2.5773543E-11
  2.0365000E-02    1.3307186E-10
  2.0400001E-02    9.7151204E-11
  2.0435000E-02   -9.7467583E-11
  2.0470001E-02   -1.4355939E-10
  2.0505000E-02    5.3680616E-11
  2.0540001E-02    1.9656733E-10
  2.0575000E-02    5.0189221E-11
  2.0609999E-02   -1.6834444E-10
  2.0645000E-02   -1.1034117E-10
  2.0679999E-02    1.5294370E-10
  2.0715000E-02    2.2353534E-10
  2.0749999E-02   -8.3162036E-12
  2.0785000E-02   -1.8204308E-10
  2.0819999E-02   -1.4974095E-11
  2.0855000E-02    2.5610400E-10
  2.0889999E-02    2.2811114E-10
  2.0925000E-02   -4.8129171E-11
  2.0959999E-02   -1.3256522E-10
  2.0995000E-02    1.3565350E-10
  2.1029999E-02    3.8191977E-10
  2.1065000E-02    2.6124891E-10
  2.1100000E-02   -6.7324449E-12
  2.1135001E-02    3.5729860E-11
  2.1170000E-02    3.8182218E-10
  2.1205001E-02    5.6493105E-10
  2.1240000E-02    3.7535233E-10
  2.1275001E-02    1.8735208E-10
  2.1310000E-02    3.8969000E-10
  2.1345001E-02    7.9413914E-10
  2.1380000E-02    9.2472319E-10
  2.1415001E-02    7.4007384E-10
  2.1450000E-02    6.9597028E-10
  2.1485001E-02    1.0649924E-09
  2.1520000E-02    1.5343125E-09
  2.1555001E-02    1.6744056E-09
  2.1590000E-02    1.5846224E-09
  2.1624999E-02    1.7603663E-09
  2.1660000E-02    2.3649283E-09
  2.1694999E-02    2.9799410E-09
  2.1730000E-02    3.2272875E-09
  2.1764999E-02    3.3534466E-09
  2.1800000E-02    3.8833528E-09
  2.1834999E-02    4.8408006E-09
  2.1870000E-02    5.7182352E-09
  2.1904999E-02    6.2583299E-09
  2.1940000E-02    6.8561663E-09
  2.1974999E-02    7.9739682E-09
  2.2010000E-02    9.4763273E-09
  2.2045000E-02    1.0875495E-08
  2.2080000E-02    1.2072172E-08
  2.2115000E-02    1.3499517E-08
  2.2150001E-02    1.5520390E-08
  2.2185000E-02    1.7960314E-08
  2.2220001E-02    2.0397323E-08
  2.2255000E-02    2.2785821E-08
  2.2290001E-02    2.5574371E-08
  2.2325000E-02    2.9135967E-08
  2.2360001E-02    3.3261252E-08
  2.2395000E-02    3.7477871E-08
  2.2430001E-02    4.1828621E-08
  2.2465000E-02    4.6937114E-08
  2.2500001E-02    5.3144568E-08
  2.2535000E-02    6.0028569E-08
  2.2569999E-02    6.7145372E-08
  2.2605000E-02    7.4868517E-08
  2.2639999E-02    8.3921805E-08
  2.2675000E-02    9.4326985E-08
  2.2709999E-02    1.0552819E-07
  2.2745000E-02    1.1747986E-07
  2.2779999E-02    1.3084116E-07
  2.2815000E-02    1.4604109E-07
  2.2849999E-02    1.6286174E-07
  2.2885000E-02    1.8108159E-07
  2.2919999E-02    2.0098446E-07
  2.2955000E-02    2.2307039E-07
  2.2990000E-02    2.4755826E-07
  2.3025000E-02    2.7442493E-07
  2.3060000E-02    3.0375153E-07
  2.3095001E-02    3.3580721E-07
  2.3130000E-02    3.7096223E-07
  2.3165001E-02    4.0958855E-07
  2.3200000E-02    4.5190973E-07
  2.3235001E-02    4.9795352E-07
  2.3270000E-02    5.4795657E-07
  2.3305001E-02    6.0258645E-07
  2.3340000E-02    6.6235879E-07
  2.3375001E-02    7.2732786E-07
  2.3410000E-02    7.9766312E-07
  2.3445001E-02    8.7406482E-07
  2.3480000E-02    9.5716155E-07
  2.3514999E-02    1.0472094E-06
  2.3550000E-02    1.1445917E-06
  2.3584999E-02    1.2499452E-06
  2.3620000E-02    1.3639083E-06
  2.3654999E-02    1.4869224E-06
  2.3690000E-02    1.6195054E-06
  2.3724999E-02    1.7625404E-06
  2.3760000E-02    1.9168062E-06
  2.3794999E-02    2.0825678E-06
  2.3830000E-02    2.2604211E-06
  2.3864999E-02    2.4516448E-06
  2.3900000E-02    2.6571124E-06
  2.3934999E-02    2.8771769E-06
  2.3970000E-02    3.1127540E-06
  2.4005000E-02    3.3648382E-06
  2.4040001E-02    3.6343797E-06
  2.4075000E-02    3.9224597E-06
  2.4110001E-02    4.2297916E-06
  2.4145000E-02    4.5571537E-06
  2.4180001E-02    4.9060732E-06
  2.4215000E-02    5.2775958E-06
  2.4250001E-02    5.6723716E-06
  2.4285000E-02    6.0917746E-06
  2.4320001E-02    6.5370791E-06
  2.4355000E-02    7.0089709E-06
  2.4390001E-02    7.5090311E-06
  2.4425000E-02    8.0387081E-06
  2.4460001E-02    8.5985212E-06
  2.4495000E-02    9.1897991E-06
  2.4529999E-02    9.8142209E-06
  2.4565000E-02    1.0472651E-05
  2.4599999E-02    1.1166431E-05
  2.4635000E-02    1.1896745E-05
  2.4669999E-02    1.2664456E-05
  2.4705000E-02    1.3471496E-05
  2.4739999E-02    1.4319362E-05
  2.4775000E-02    1.5207492E-05
  2.4809999E-02    1.6137639E-05
  2.4845000E-02    1.7112785E-05
  2.4879999E-02    1.8131814E-05
  2.4915000E-02    1.9195586E-05
  2.4950000E-02    2.0307642E-05
  2.4985000E-02    2.1467114E-05
  2.5020000E-02    2.2673457E-05
  2.5055001E-02    2.3929944E-05
  2.5090000E-02    2.5236999E-05
  2.5125001E-02    2.6593361E-05
  2.5160000E-02    2.8001248E-05
  2.5195001E-02    2.9461298E-05
  2.5230000E-02    3.0972496E-05
  2.5265001E-02    3.2536260E-05
  2.5300000E-02    3.4152436E-05
  2.5335001E-02    3.5819190E-05
  2.5370000E-02    3.7538935E-05
  2.5405001E-02    3.9311934E-05
  2.5440000E-02    4.1135117E-05
  2.5474999E-02    4.3008924E-05
  2.5510000E-02    4.4933073E-05
  2.5544999E-02    4.6905505E-05
  2.5580000E-02    4.8926468E-05
  2.5614999E-02    5.0995037E-05
  2.5650000E-02    5.3107316E-05
  2.5684999E-02    5.5263077E-05
  2.5720000E-02    5.7461988E-05
  2.5754999E-02    5.9700353E-05
  2.5790000E-02    6.1976622E-05
  2.5824999E-02    6.4287939E-05
  2.5860000E-02    6.6629560E-05
  2.5895000E-02    6.9002352E-05
  2.5930000E-02    7.1404451E-05
  2.5965000E-02    7.3826690E-05
  2.6000001E-02    7.6266304E-05
  2.6035000E-02    7.8725279E-05
  2.6070001E-02    8.1197839E-05
  2.6105000E-02    8.3676758E-05
  2.6140001E-02    8.6159409E-05
  2.6175000E-02    8.8641194E-05
  2.6210001E-02    9.1118491E-05
  2.6245000E-02    9.3586801E-05
  2.6280001E-02    9.6038508E-05
  2.6315000E-02    9.8469682E-05
  2.6350001E-02    1.0087730E-04
  2.6385000E-02    1.0325267E-04
  2.6419999E-02    1.0559093E-04
  2.6455000E-02    1.0788938E-04
  2.6489999E-02    1.1013841E-04
  2.6525000E-02    1.1233168E-04
  2.6559999E-02    1.1446859E-04
  2.6595000E-02    1.1654053E-04
  2.6629999E-02    1.1853935E-04
  2.6665000E-02    1.2046244E-04
  2.6699999E-02    1.2230118E-04
  2.6735000E-02    1.2404865E-04
  2.6769999E-02    1.2570461E-04
  2.6805000E-02    1.2726066E-04
  2.6839999E-02    1.2870663E-04
  2.6875000E-02    1.3004056E-04
  2.6910000E-02    1.3125851E-04
  2.6945001E-02    1.3235294E-04
  2.6980000E-02    1.3332098E-04