 -4.8000002E-03    1.0000000E-24
 -4.7650002E-03    1.0000002E-24
 -4.7300002E-03    1.0000001E-24
 -4.6950001E-03    1.0000000E-24
 -4.6600001E-03    1.0000001E-24
 -4.6250001E-03    1.0000002E-24
 -4.5900000E-03    1.0000002E-24
 -4.5550000E-03    9.9999992E-25
 -4.5200000E-03    1.0000001E-24
 -4.4849999E-03    1.0000002E-24
 -4.4499999E-03    1.0000001E-24
 -4.4149999E-03    9.9999972E-25
 -4.3799998E-03    1.0000002E-24
 -4.3449998E-03    1.0000005E-24
 -4.3100002E-03    1.0000004E-24
 -4.2750002E-03    1.0000003E-24
 -4.2400002E-03    9.9999992E-25
 -4.2050001E-03    9.9999982E-25
 -4.1700001E-03    1.0000002E-24
 -4.1350001E-03    1.0000001E-24
 -4.1000000E-03    9.9999982E-25
 -4.0650000E-03    1.0000002E-24
 -4.0300000E-03    1.0000002E-24
 -3.9949999E-03    9.9999972E-25
 -3.9599999E-03    1.0000035E-24
 -3.9249999E-03    9.9997063E-25
 -3.8900001E-03    1.0000486E-24
 -3.8550000E-03    1.0005039E-24
 -3.8200000E-03    9.9690522E-25
 -3.7849999E-03    1.0034142E-24
 -3.7499999E-03    1.0278994E-24
 -3.7150001E-03    8.9069042E-25
 -3.6800001E-03    1.0079085E-24
 -3.6450000E-03    1.8373752E-24
 -3.6100000E-03   -6.9904130E-25
 -3.5750000E-03   -1.1062685E-24
 -3.5399999E-03    1.4364928E-23
 -3.5049999E-03   -1.0389986E-23
 -3.4700001E-03   -4.6494017E-23
 -3.4350001E-03    1.3057291E-22
 -3.4000000E-03    1.4031401E-23
 -3.3650000E-03   -5.8734110E-22
 -3.3300000E-03    7.9425899E-22
 -3.2949999E-03    1.3451965E-21
 -3.2599999E-03   -4.8475219E-21
 -3.2250001E-03    6.2034881E-22
 -3.1900001E-03    1.6749664E-20
 -3.1550000E-03   -1.9000807E-20
 -3.1200000E-03   -3.5827538E-20
 -3.0850000E-03    8.9007594E-20
 -3.0499999E-03    2.7325475E-20
 -3.0149999E-03   -2.6004361E-19
 -2.9800001E-03    1.3339933E-19
 -2.9450001E-03    5.1672567E-19
 -2.9100000E-03   -6.9426778E-19
 -2.8750000E-03   -5.7156107E-19
 -2.8400000E-03    1.8786421E-18
 -2.8049999E-03   -4.0779823E-19
 -2.7699999E-03   -3.3326036E-18
 -2.7350001E-03    3.7785817E-18
 -2.7000001E-03    3.1777136E-18
 -2.6650000E-03   -1.0483401E-17
 -2.6300000E-03    2.5725664E-18
 -2.5950000E-03    1.8930043E-17
 -2.5599999E-03   -1.8547887E-17
 -2.5249999E-03   -2.3056834E-17
 -2.4900001E-03    4.5030336E-17
 -2.4550001E-03    1.4340359E-17
 -2.4200000E-03   -7.0936852E-17
 -2.3850000E-03    8.0737981E-18
 -2.3500000E-03    7.1640809E-17
 -2.3149999E-03   -2.0398757E-17
 -2.2799999E-03   -2.1374010E-17
 -2.2450001E-03   -3.6407968E-17
 -2.2100001E-03   -7.7683370E-17
 -2.1750000E-03    2.3755788E-16
 -2.1400000E-03    1.6853073E-16
 -2.1050000E-03   -6.0967483E-16
 -2.0699999E-03   -1.5483937E-16
 -2.0349999E-03    1.0385243E-15
 -2.0000001E-03   -8.5379829E-18
 -1.9650001E-03   -1.2114119E-15
 -1.9300000E-03    1.7475784E-16
 -1.8950000E-03    6.6511563E-16
 -1.8600000E-03    7.7815157E-17
 -1.8250000E-03    1.0555800E-15
 -1.7900000E-03   -1.3309255E-15
 -1.7550000E-03   -4.2410999E-15
 -1.7199999E-03    3.9712894E-15
 -1.6850000E-03    9.0364245E-15
 -1.6500000E-03   -7.7473165E-15
 -1.6150000E-03   -1.5693803E-14
 -1.5800000E-03    1.1521299E-14
 -1.5450000E-03    2.4824884E-14
 -1.5100000E-03   -1.3412035E-14
 -1.4750001E-03   -3.7198357E-14
 -1.4400000E-03    1.1264914E-14
 -1.4050000E-03    5.2859410E-14
 -1.3700000E-03   -3.1821719E-15
 -1.3350000E-03   -7.0071072E-14
 -1.3000000E-03   -1.2143447E-14
 -1.2650000E-03    8.5071070E-14
 -1.2300001E-03    3.5319729E-14
 -1.1950000E-03   -9.2943177E-14
 -1.1600000E-03   -6.5932306E-14
 -1.1250000E-03    8.8441895E-14
 -1.0900000E-03    1.0123448E-13
 -1.0550000E-03   -6.5590423E-14
 -1.0200000E-03   -1.3415572E-13
 -9.8500005E-04    1.7112618E-14
 -9.5000002E-04    1.5374316E-13
 -9.1499998E-04    6.4169353E-14
 -8.8000001E-04   -1.5144709E-13
 -8.4499997E-04   -1.8297425E-13
 -8.1000000E-04    1.2926857E-13
 -7.7500002E-04    3.4184277E-13
 -7.3999999E-04   -9.6673551E-14
 -7.0500001E-04   -5.4332136E-13
 -6.6999998E-04    4.9012630E-14
 -6.3500000E-04    7.8832329E-13
 -6.0000003E-04    5.7542689E-14
 -5.6499999E-04   -1.0702839E-12
 -5.3000002E-04   -3.0769896E-13
 -4.9499999E-04    1.3719748E-12
 -4.6000001E-04    7.9768299E-13
 -4.2500001E-04   -1.6629785E-12
 -3.9000000E-04   -1.5981264E-12
 -3.5500000E-04    1.8788358E-12
 -3.1999999E-04    2.7396217E-12
 -2.8499999E-04   -1.8610985E-12
 -2.5000001E-04   -4.2107862E-12
 -2.1499999E-04    1.2750754E-12
 -1.8000000E-04    5.8918213E-12
 -1.4500000E-04    3.8059275E-13
 -1.1000000E-04   -7.3836805E-12
 -7.5000004E-05   -3.5020762E-12
 -3.9999999E-05    7.9318366E-12
 -4.9999999E-06    7.9340996E-12
  2.9999999E-05   -6.7269567E-12
  6.5000000E-05   -1.2874172E-11
  9.9999997E-05    3.3302733E-12
  1.3499999E-04    1.7358828E-11
  1.7000000E-04    2.4438778E-12
  2.0500000E-04   -2.0484399E-11
  2.3999999E-04   -1.0862220E-11
  2.7500000E-04    2.0720394E-11
  3.1000000E-04    2.1456172E-11
  3.4500001E-04   -1.5819495E-11
  3.8000001E-04   -3.1557496E-11
  4.1499999E-04    4.8496506E-12
  4.4999999E-04    3.7114034E-11
  4.8500000E-04    1.0062076E-11
  5.2000000E-04   -3.5794787E-11
  5.5499998E-04   -2.5501212E-11
  5.9000001E-04    2.7693455E-11
  6.2499999E-04    3.9229023E-11
  6.6000002E-04   -1.2652655E-11
  6.9500000E-04   -4.8764118E-11
  7.3000003E-04   -9.8456269E-12
  7.6500000E-04    4.9643668E-11
  7.9999998E-04    3.7097880E-11
  8.3500001E-04   -3.8657893E-11
  8.6999999E-04   -6.3140750E-11
  9.0500002E-04    1.6914971E-11
  9.4000000E-04    8.2655570E-11
  9.7499997E-04    1.2518387E-11
  1.0100000E-03   -9.1487776E-11
  1.0450000E-03   -4.5784553E-11
  1.0800000E-03    8.6594079E-11
  1.1150000E-03    7.6451588E-11
  1.1500000E-03   -7.0752758E-11
  1.1849999E-03   -1.0007994E-10
  1.2200000E-03    5.0905301E-11
  1.2550000E-03    1.1839171E-10
  1.2900000E-03   -2.7642683E-11
  1.3250000E-03   -1.2880867E-10
  1.3600000E-03   -5.7441557E-13
  1.3950000E-03    1.1994776E-10
  1.4299999E-03    2.1607108E-11
  1.4650000E-03   -9.3444363E-11
  1.5000000E-03   -2.1924294E-11
  1.5350000E-03    7.1866527E-11
  1.5700000E-03    1.3829992E-11
  1.6050000E-03   -6.4781798E-11
  1.6400000E-03   -1.9148971E-11
  1.6749999E-03    5.1638738E-11
  1.7100000E-03    2.9556281E-11
  1.7450000E-03   -1.8505428E-11
  1.7800000E-03   -1.6133140E-11
  1.8150000E-03   -1.3254565E-11
  1.8500000E-03   -2.1218785E-11
  1.8850000E-03    2.1308783E-11
  1.9200000E-03    4.7477144E-11
  1.9550000E-03   -3.4006034E-11
  1.9900000E-03   -7.0672440E-11
  2.0250001E-03    6.5961507E-11
  2.0600001E-03    1.3019463E-10
  2.0949999E-03   -5.8148712E-11
  2.1299999E-03   -1.6736960E-10
  2.1650000E-03    5.6453387E-11
  2.2000000E-03    2.3234681E-10
  2.2350000E-03    3.2746673E-11
  2.2700001E-03   -1.5264291E-10
  2.3050001E-03    5.1961872E-11
  2.3399999E-03    2.6716909E-10
  2.3749999E-03    9.7066202E-11
  2.4100000E-03   -8.8760076E-11
  2.4450000E-03    1.1595420E-10
  2.4800000E-03    3.6356695E-10
  2.5150001E-03    2.6049793E-10
  2.5500001E-03    1.3006533E-10
  2.5849999E-03    3.2964720E-10
  2.6199999E-03    5.6489974E-10
  2.6550000E-03    5.5355398E-10
  2.6900000E-03    5.7563981E-10
  2.7250000E-03    8.1069657E-10
  2.7600001E-03    9.7120889E-10
  2.7950001E-03    1.0153880E-09
  2.8299999E-03    1.3343677E-09
  2.8649999E-03    1.8796289E-09
  2.9000000E-03    2.0781825E-09
  2.9350000E-03    2.0351325E-09
  2.9700000E-03    2.6158724E-09
  3.0050001E-03    3.7400416E-09
  3.0400001E-03    4.2844173E-09
  3.0749999E-03    4.3481085E-09
  3.1099999E-03    5.2364393E-09
  3.1450000E-03    6.8537425E-09
  3.1800000E-03    8.0339682E-09
  3.2150000E-03    8.9651193E-09
  3.2500001E-03    1.0481557E-08
  3.2850001E-03    1.2469550E-08
  3.3199999E-03    1.4702476E-08
  3.3549999E-03    1.7256113E-08
  3.3900000E-03    2.0008294E-08
  3.4250000E-03    2.3031630E-08
  3.4600000E-03    2.6549639E-08
  3.4950001E-03    3.0870442E-08
  3.5300001E-03    3.6474351E-08
  3.5649999E-03    4.2459977E-08
  3.5999999E-03    4.7697888E-08
  3.6350000E-03    5.4420354E-08
  3.6700000E-03    6.4448621E-08
  3.7050000E-03    7.4672563E-08
  3.7400001E-03    8.3801901E-08
  3.7750001E-03    9.5652659E-08
  3.8099999E-03    1.1093113E-07
  3.8449999E-03    1.2691672E-07
  3.8800000E-03    1.4410948E-07
  3.9149998E-03    1.6400250E-07
  3.9499998E-03    1.8666202E-07
  3.9849998E-03    2.1271708E-07
  4.0199999E-03    2.4156751E-07
  4.0549999E-03    2.7296633E-07
  4.0899999E-03    3.0959418E-07
  4.1250000E-03    3.5084233E-07
  4.1600000E-03    3.9442978E-07
  4.1950000E-03    4.4435862E-07
  4.2300001E-03    5.0238663E-07
  4.2650001E-03    5.6397971E-07
  4.3000001E-03    6.3141232E-07
  4.3350002E-03    7.0976415E-07
  4.3700002E-03    7.9581434E-07
  4.4049998E-03    8.8889863E-07
  4.4399998E-03    9.9351439E-07
  4.4749998E-03    1.1086527E-06
  4.5099999E-03    1.2343883E-06
  4.5449999E-03    1.3746236E-06
  4.5799999E-03    1.5277342E-06
  4.6150000E-03    1.6942827E-06
  4.6500000E-03    1.8795164E-06
  4.6850001E-03    2.0810719E-06
  4.7200001E-03    2.2990266E-06
  4.7550001E-03    2.5410325E-06
  4.7900002E-03    2.8045074E-06
  4.8250002E-03    3.0863678E-06
  4.8600002E-03    3.3959425E-06
  4.8949998E-03    3.7343930E-06
  4.9299998E-03    4.0967789E-06
  4.9649999E-03    4.4902481E-06
  4.9999999E-03    4.9176101E-06
  5.0349999E-03    5.3749400E-06
  5.0700000E-03    5.8700389E-06
  5.1050000E-03    6.4062488E-06
  5.1400000E-03    6.9774073E-06
  5.1750001E-03    7.5906819E-06
  5.2100001E-03    8.2530441E-06
  5.2450001E-03    8.9584137E-06
  5.2800002E-03    9.7110142E-06
  5.3150002E-03    1.0517997E-05
  5.3500002E-03    1.1374717E-05
  5.3849998E-03    1.2285469E-05
  5.4199998E-03    1.3259025E-05
  5.4549999E-03    1.4289283E-05
  5.4899999E-03    1.5378177E-05
  5.5249999E-03    1.6536433E-05
  5.5600000E-03    1.7758961E-05
  5.5950000E-03    1.9044739E-05
  5.6300000E-03    2.0405179E-05
  5.6650001E-03    2.1836957E-05
  5.7000001E-03    2.3335386E-05
  5.7350001E-03    2.4911045E-05
  5.7700002E-03    2.6564634E-05
  5.8050002E-03    2.8289182E-05
  5.8400002E-03    3.0092106E-05
  5.8749998E-03    3.1975727E-05
  5.9099998E-03    3.3933298E-05
  5.9449999E-03    3.5969933E-05
  5.9799999E-03    3.8087506E-05
  6.0149999E-03    4.0278046E-05
  6.0500000E-03    4.2544903E-05
  6.0850000E-03    4.4891251E-05
  6.1200000E-03    4.7308033E-05
  6.1550001E-03    4.9794460E-05
  6.1900001E-03    5.2354597E-05
  6.2250001E-03    5.4980337E-05
  6.2600002E-03    5.7668538E-05
  6.2950002E-03    6.0421306E-05
  6.3299998E-03    6.3230480E-05
  6.3649998E-03    6.6091066E-05
  6.3999998E-03    6.9000918E-05
  6.4349999E-03    7.1953560E-05
  6.4699999E-03    7.4944575E-05
  6.5049999E-03    7.7970108E-05
  6.5400000E-03    8.1021120E-05
  6.5750000E-03    8.4091298E-05
  6.6100000E-03    8.7174594E-05
  6.6450001E-03    9.0262409E-05
  6.6800001E-03    9.3351591E-05
  6.7150001E-03    9.6432370E-05
  6.7500002E-03    9.9489553E-05
  6.7850002E-03    1.0252214E-04
  6.8199998E-03    1.0552590E-04
  6.8549998E-03    1.0848261E-04
  6.8899998E-03    1.1138455E-04
  6.9249999E-03    1.1422861E-04
  6.9599999E-03    1.1699989E-04
  6.9949999E-03    1.1968886E-04
  7.0300000E-03    1.2229175E-04
  7.0650000E-03    1.2479583E-04
  7.1000000E-03    1.2718744E-04
  7.1350001E-03    1.2946235E-04
  7.1700001E-03    1.3161470E-04
  7.2050001E-03    1.3363290E-04
  7.2400002E-03    1.3550551E-04
  7.2750002E-03    1.3722444E-04
  7.3099998E-03    1.3878624E-04
  7.3449998E-03    1.4018205E-04
  7.3799998E-03    1.4140071E-04
  7.4149999E-03    1.4243947E-04
  7.4499999E-03    1.4329281E-04
  7.4850000E-03    1.4395028E-04
  7.5200000E-03    1.4441102E-04
  7.5550000E-03    1.4467529E-04
  7.5900001E-03    1.4473347E-04
  7.6250001E-03    1.4458058E-04
  7.6600001E-03    1.4421958E-04
  7.6950002E-03    1.4364791E-04
  7.7300002E-03    1.4286350E-04
  7.7650002E-03    1.4187032E-04
  7.7999998E-03    1.4066706E-04
  7.8349998E-03    1.3925205E-04
  7.8699999E-03    1.3763417E-04
  7.9049999E-03    1.3581965E-04
  7.9399999E-03    1.3380378E-04
  7.9750000E-03    1.3159071E-04
  8.0100000E-03    1.2919675E-04
  8.0450000E-03    1.2662756E-04
  8.0800001E-03    1.2388312E-04
  8.1150001E-03    1.2097567E-04
  8.1500001E-03    1.1791879E-04
  8.1850002E-03    1.1471684E-04
  8.2200002E-03    1.1137952E-04
  8.2550002E-03    1.0792394E-04
  8.2900003E-03    1.0435615E-04
  8.3250003E-03    1.0068573E-04
  8.3600003E-03    9.6934011E-05
  8.3950004E-03    9.3110510E-05
  8.4300004E-03    8.9220441E-05
  8.4650004E-03    8.5285363E-05
  8.5000005E-03    8.1321210E-05
  8.5349996E-03    7.7332719E-05
  8.5699996E-03    7.3338255E-05
  8.6049996E-03    6.9355134E-05
  8.6399997E-03    6.5387983E-05
  8.6749997E-03    6.1454004E-05
  8.7099997E-03    5.7573023E-05
  8.7449998E-03    5.3748921E-05
  8.7799998E-03    4.9992257E-05
  8.8149998E-03    4.6321984E-05
  8.8499999E-03    4.2745112E-05
  8.8849999E-03    3.9270948E-05
  8.9199999E-03    3.5915848E-05
  8.9550000E-03    3.2682179E-05
  8.9900000E-03    2.9578729E-05
  9.0250000E-03    2.6621457E-05
  9.0600001E-03    2.3810107E-05
  9.0950001E-03    2.1148073E-05
  9.1300001E-03    1.8648787E-05
  9.1650002E-03    1.6312064E-05
  9.2000002E-03    1.4141939E-05
  9.2350002E-03    1.2148023E-05
  9.2700003E-03    1.0320330E-05
  9.3050003E-03    8.6586933E-06
  9.3400003E-03    7.1781833E-06
  9.3750004E-03    5.8699729E-06
  9.4100004E-03    4.7234994E-06
  9.4450004E-03    3.7516529E-06
  9.4799995E-03    2.9474627E-06
  9.5149996E-03    2.2968559E-06
  9.5499996E-03    1.8108633E-06
  9.5849996E-03    1.4806099E-06
  9.6199997E-03    1.2835858E-06
  9.6549997E-03    1.2297302E-06
  9.6899997E-03    1.3197671E-06
  9.7249998E-03    1.5286530E-06
  9.7599998E-03    1.8553924E-06
  9.7949998E-03    2.3042921E-06
  9.8299999E-03    2.8539030E-06
  9.8649999E-03    3.4941186E-06
  9.8999999E-03    4.2280744E-06
  9.9350000E-03    5.0431163E-06
  9.9700000E-03    5.9275199E-06
  1.0005000E-02    6.8793497E-06
  1.0040000E-02    7.8897629E-06
  1.0075000E-02    8.9468203E-06
  1.0110000E-02    1.0043149E-05
  1.0145000E-02    1.1173272E-05
  1.0180000E-02    1.2329740E-05
  1.0215000E-02    1.3501502E-05
  1.0250000E-02    1.4683988E-05
  1.0285000E-02    1.5875734E-05
  1.0320000E-02    1.7062726E-05
  1.0355000E-02    1.8236138E-05
  1.0390000E-02    1.9399633E-05
  1.0425000E-02    2.0542078E-05
  1.0460000E-02    2.1650496E-05
  1.0495000E-02    2.2730690E-05
  1.0530000E-02    2.3775330E-05
  1.0565000E-02    2.4766076E-05
  1.0600000E-02    2.5707404E-05
  1.0635000E-02    2.6602194E-05
  1.0670000E-02    2.7434071E-05
  1.0705000E-02    2.8196813E-05
  1.0740000E-02    2.8889690E-05
  1.0775000E-02    2.9502793E-05
  1.0810000E-02    3.0034445E-05
  1.0845000E-02    3.0483134E-05
  1.0880000E-02    3.0834170E-05
  1.0915000E-02    3.1083880E-05
  1.0950000E-02    3.1238214E-05
  1.0985000E-02    3.1284773E-05
  1.1020000E-02    3.1208197E-05
  1.1055000E-02    3.1012525E-05
  1.1090000E-02    3.0697847E-05
  1.1125000E-02    3.0248113E-05
  1.1160000E-02    2.9658449E-05
  1.1195000E-02    2.8936352E-05
  1.1230000E-02    2.8071931E-05
  1.1265000E-02    2.7047003E-05
  1.1300000E-02    2.5864818E-05
  1.1335000E-02    2.4532503E-05
  1.1370000E-02    2.3037346E-05
  1.1405000E-02    2.1369653E-05
  1.1440000E-02    1.9536681E-05
  1.1475000E-02    1.7541290E-05
  1.1510000E-02    1.5376847E-05
  1.1545000E-02    1.3039907E-05
  1.1580000E-02    1.0532263E-05
  1.1615000E-02    7.8578205E-06
  1.1650000E-02    5.0188341E-06
  1.1685000E-02    2.0151297E-06
  1.1720000E-02   -1.1471247E-06
  1.1755000E-02   -4.4558979E-06
  1.1790000E-02   -7.9067313E-06
  1.1825000E-02   -1.1499375E-05
  1.1860000E-02   -1.5221707E-05
  1.1895000E-02   -1.9056153E-05
  1.1930000E-02   -2.2997690E-05
  1.1965000E-02   -2.7041860E-05
  1.2000000E-02   -3.1165793E-05
  1.2035000E-02   -3.5348959E-05
  1.2070000E-02   -3.9587991E-05
  1.2105000E-02   -4.3869495E-05
  1.2140000E-02   -4.8167272E-05
  1.2175000E-02   -5.2468298E-05
  1.2210000E-02   -5.6760211E-05
  1.2245000E-02   -6.1017188E-05
  1.2280000E-02   -6.5220869E-05
  1.2315000E-02   -6.9358561E-05
  1.2350000E-02   -7.3409079E-05
  1.2385000E-02   -7.7353550E-05
  1.2420000E-02   -8.1174847E-05
  1.2455000E-02   -8.4852341E-05
  1.2490000E-02   -8.8374407E-05
  1.2525000E-02   -9.1727197E-05
  1.2560000E-02   -9.4884279E-05
  1.2595000E-02   -9.7831158E-05
  1.2630000E-02   -1.0056330E-04
  1.2665000E-02   -1.0306251E-04
  1.2700000E-02   -1.0531324E-04
  1.2735000E-02   -1.0731354E-04
  1.2770000E-02   -1.0905419E-04
  1.2805000E-02   -1.1052128E-04
  1.2840000E-02   -1.1171059E-04
  1.2875000E-02   -1.1262076E-04
  1.2910000E-02   -1.1324797E-04
  1.2945000E-02   -1.1358757E-04
  1.2980000E-02   -1.1363896E-04
  1.3015000E-02   -1.1341073E-04
  1.3050000E-02   -1.1290714E-04
  1.3085000E-02   -1.1212377E-04
  1.3120000E-02   -1.1106839E-04
  1.3155000E-02   -1.0975663E-04
  1.3190000E-02   -1.0819237E-04
  1.3225000E-02   -1.0638221E-04
  1.3260000E-02   -1.0434371E-04
  1.3295000E-02   -1.0208778E-04
  1.3330000E-02   -9.9623248E-05
  1.3365000E-02   -9.6968150E-05
  1.3400000E-02   -9.4139206E-05
  1.3435000E-02   -9.1149137E-05
  1.3470000E-02   -8.8012413E-05
  1.3505000E-02   -8.4744352E-05
  1.3540000E-02   -8.1364160E-05
  1.3575000E-02   -7.7891767E-05
  1.3610000E-02   -7.4337775E-05
  1.3645000E-02   -7.0714690E-05
  1.3680000E-02   -6.7045556E-05
  1.3715000E-02   -6.3347310E-05
  1.3750000E-02   -5.9629081E-05
  1.3785000E-02   -5.5907960E-05
  1.3820000E-02   -5.2203086E-05
  1.3855000E-02   -4.8523943E-05
  1.3890000E-02   -4.4878878E-05
  1.3925000E-02   -4.1281717E-05
  1.3960000E-02   -3.7746122E-05
  1.3995000E-02   -3.4282039E-05
  1.4030000E-02   -3.0896696E-05
  1.4065000E-02   -2.7598537E-05
  1.4100000E-02   -2.4397074E-05
  1.4135000E-02   -2.1297625E-05
  1.4170000E-02   -1.8303681E-05
  1.4205000E-02   -1.5420050E-05
  1.4240000E-02   -1.2647035E-05
  1.4275000E-02   -9.9859944E-06
  1.4310000E-02   -7.4467562E-06
  1.4345000E-02   -5.0314461E-06
  1.4380000E-02   -2.7310025E-06
  1.4415000E-02   -5.4616095E-07
  1.4450000E-02    1.5190966E-06
  1.4485000E-02    3.4737445E-06
  1.4520000E-02    5.3225740E-06
  1.4555000E-02    7.0623992E-06
  1.4590000E-02    8.7000817E-06
  1.4625000E-02    1.0239994E-05
  1.4660000E-02    1.1677341E-05
  1.4695000E-02    1.3023400E-05
  1.4730000E-02    1.4295446E-05
  1.4765000E-02    1.5489519E-05
  1.4800000E-02    1.6602040E-05
  1.4835000E-02    1.7646462E-05
  1.4870000E-02    1.8629784E-05
  1.4905000E-02    1.9550716E-05
  1.4940000E-02    2.0416597E-05
  1.4975000E-02    2.1236372E-05
  1.5010000E-02    2.2013215E-05
  1.5045000E-02    2.2749586E-05
  1.5080000E-02    2.3448089E-05
  1.5115000E-02    2.4113655E-05
  1.5150000E-02    2.4752304E-05
  1.5185000E-02    2.5364183E-05
  1.5220000E-02    2.5949734E-05
  1.5255000E-02    2.6514836E-05
  1.5290000E-02    2.7061216E-05
  1.5325000E-02    2.7588549E-05
  1.5360000E-02    2.8101913E-05
  1.5395000E-02    2.8602095E-05
  1.5430000E-02    2.9084013E-05
  1.5465000E-02    2.9549177E-05
  1.5500000E-02    3.0001891E-05
  1.5535000E-02    3.0439449E-05
  1.5570000E-02    3.0858508E-05
  1.5605000E-02    3.1260573E-05
  1.5640000E-02    3.1647443E-05
  1.5675001E-02    3.2018361E-05
  1.5710000E-02    3.2370284E-05
  1.5745001E-02    3.2699703E-05
  1.5780000E-02    3.3005730E-05
  1.5814999E-02    3.3289063E-05
  1.5850000E-02    3.3548946E-05
  1.5884999E-02    3.3784199E-05
  1.5920000E-02    3.3994595E-05
  1.5954999E-02    3.4178884E-05
  1.5990000E-02    3.4334829E-05
  1.6024999E-02    3.4462759E-05
  1.6060000E-02    3.4563585E-05
  1.6094999E-02    3.4634239E-05
  1.6130000E-02    3.4673412E-05
  1.6164999E-02    3.4685763E-05
  1.6200000E-02    3.4672048E-05
  1.6235000E-02    3.4629113E-05
  1.6270000E-02    3.4560995E-05
  1.6305000E-02    3.4471119E-05
  1.6340001E-02    3.4353001E-05
  1.6375000E-02    3.4205645E-05
  1.6410001E-02    3.4038880E-05
  1.6445000E-02    3.3855635E-05
  1.6480001E-02    3.3653247E-05
  1.6515000E-02    3.3436285E-05
  1.6550001E-02    3.3207656E-05
  1.6585000E-02    3.2963657E-05
  1.6620001E-02    3.2707499E-05
  1.6655000E-02    3.2446733E-05
  1.6690001E-02    3.2181229E-05
  1.6725000E-02    3.1911142E-05
  1.6759999E-02    3.1641979E-05
  1.6795000E-02    3.1375017E-05
  1.6829999E-02    3.1109772E-05
  1.6865000E-02    3.0848940E-05
  1.6899999E-02    3.0592601E-05
  1.6935000E-02    3.0343224E-05
  1.6969999E-02    3.0108002E-05
  1.7005000E-02    2.9883966E-05
  1.7039999E-02    2.9665847E-05
  1.7075000E-02    2.9462903E-05
  1.7109999E-02    2.9278908E-05
  1.7145000E-02    2.9104018E-05
  1.7180000E-02    2.8940181E-05
  1.7215000E-02    2.8794453E-05
  1.7250000E-02    2.8660592E-05
  1.7285001E-02    2.8537903E-05
  1.7320000E-02    2.8433178E-05
  1.7355001E-02    2.8341108E-05
  1.7390000E-02    2.8256552E-05
  1.7425001E-02    2.8182611E-05
  1.7460000E-02    2.8115683E-05
  1.7495001E-02    2.8053744E-05
  1.7530000E-02    2.8003215E-05
  1.7565001E-02    2.7960661E-05
  1.7600000E-02    2.7916658E-05
  1.7635001E-02    2.7872511E-05
  1.7670000E-02    2.7831162E-05
  1.7704999E-02    2.7787964E-05
  1.7740000E-02    2.7738755E-05
  1.7774999E-02    2.7684915E-05
  1.7810000E-02    2.7627024E-05
  1.7844999E-02    2.7560094E-05
  1.7880000E-02    2.7482783E-05
  1.7914999E-02    2.7399241E-05
  1.7950000E-02    2.7305050E-05
  1.7984999E-02    2.7194885E-05
  1.8020000E-02    2.7074650E-05
  1.8054999E-02    2.6941816E-05
  1.8090000E-02    2.6788399E-05
  1.8124999E-02    2.6624390E-05
  1.8160000E-02    2.6453677E-05
  1.8195000E-02    2.6262322E-05
  1.8230001E-02    2.6053420E-05
  1.8265000E-02    2.5837167E-05
  1.8300001E-02    2.5605432E-05
  1.8335000E-02    2.5357229E-05
  1.8370001E-02    2.5100415E-05
  1.8405000E-02    2.4830313E-05
  1.8440001E-02    2.4548262E-05
  1.8475000E-02    2.4262692E-05
  1.8510001E-02    2.3966615E-05
  1.8545000E-02    2.3655541E-05
  1.8580001E-02    2.3339413E-05
  1.8615000E-02    2.3021170E-05
  1.8650001E-02    2.2696438E-05
  1.8685000E-02    2.2366383E-05
  1.8719999E-02    2.2035121E-05
  1.8755000E-02    2.1702403E-05
  1.8789999E-02    2.1362643E-05
  1.8825000E-02    2.1019034E-05
  1.8859999E-02    2.0682148E-05
  1.8895000E-02    2.0346039E-05
  1.8929999E-02    2.0004614E-05
  1.8965000E-02    1.9670122E-05
  1.8999999E-02    1.9338353E-05
  1.9035000E-02    1.8996208E-05
  1.9069999E-02    1.8658498E-05
  1.9105000E-02    1.8330538E-05
  1.9140000E-02    1.7996032E-05
  1.9175000E-02    1.7662962E-05
  1.9210000E-02    1.7338456E-05
  1.9245001E-02    1.7006982E-05
  1.9280000E-02    1.6675893E-05
  1.9315001E-02    1.6355409E-05
  1.9350000E-02    1.6027478E-05
  1.9385001E-02    1.5694741E-05
  1.9420000E-02    1.5372749E-05
  1.9455001E-02    1.5046751E-05
  1.9490000E-02    1.4713212E-05
  1.9525001E-02    1.4389026E-05
  1.9560000E-02    1.4065288E-05
  1.9595001E-02    1.3733142E-05
  1.9630000E-02    1.3406565E-05
  1.9664999E-02    1.3084522E-05
  1.9700000E-02    1.2756599E-05
  1.9734999E-02    1.2428787E-05
  1.9770000E-02    1.2106604E-05
  1.9804999E-02    1.1787850E-05
  1.9840000E-02    1.1470775E-05
  1.9874999E-02    1.1154685E-05
  1.9910000E-02    1.0843831E-05
  1.9944999E-02    1.0539912E-05
  1.9980000E-02    1.0238195E-05
  2.0014999E-02    9.9427152E-06
  2.0050000E-02    9.6586800E-06
  2.0085000E-02    9.3806011E-06
  2.0120000E-02    9.1088905E-06
  2.0155000E-02    8.8479828E-06
  2.0190001E-02    8.5939037E-06
  2.0225000E-02    8.3472514E-06
  2.0260001E-02    8.1121889E-06
  2.0295000E-02    7.8864032E-06
  2.0330001E-02    7.6717042E-06
  2.0365000E-02    7.4696527E-06
  2.0400001E-02    7.2735679E-06
  2.0435000E-02    7.0849983E-06
  2.0470001E-02    6.9098460E-06
  2.0505000E-02    6.7419542E-06
  2.0540001E-02    6.5781364E-06
  2.0575000E-02    6.4248966E-06
  2.0609999E-02    6.2802960E-06
  2.0645000E-02    6.1364008E-06
  2.0679999E-02    5.9946951E-06
  2.0715000E-02    5.8610417E-06
  2.0749999E-02    5.7311645E-06
  2.0785000E-02    5.5953224E-06
  2.0819999E-02    5.4567799E-06
  2.0855000E-02    5.3237486E-06
  2.0889999E-02    5.1885136E-06
  2.0925000E-02    5.0440112E-06
  2.0959999E-02    4.8977918E-06
  2.0995000E-02    4.7481881E-06
  2.1029999E-02    4.5861325E-06
  2.1065000E-02    4.4167473E-06
  2.1100000E-02    4.2434563E-06
  2.1135001E-02    4.0594832E-06
  2.1170000E-02    3.8658350E-06
  2.1205001E-02    3.6647250E-06
  2.1240000E-02    3.4529171E-06
  2.1275001E-02    3.2343639E-06
  2.1310000E-02    3.0107601E-06
  2.1345001E-02    2.7745423E-06
  2.1380000E-02    2.5281370E-06
  2.1415001E-02    2.2794723E-06
  2.1450000E-02    2.0239222E-06
  2.1485001E-02    1.7582481E-06
  2.1520000E-02    1.4911894E-06
  2.1555001E-02    1.2259339E-06
  2.1590000E-02    9.5679036E-07
  2.1624999E-02    6.8536644E-07
  2.1660000E-02    4.1755089E-07
  2.1694999E-02    1.4947344E-07
  2.1730000E-02   -1.2137279E-07
  2.1764999E-02   -3.8358473E-07
  2.1800000E-02   -6.3230777E-07
  2.1834999E-02   -8.7762027E-07
  2.1870000E-02   -1.1184396E-06
  2.1904999E-02   -1.3447345E-06
  2.1940000E-02   -1.5617898E-06
  2.1974999E-02   -1.7750849E-06
  2.2010000E-02   -1.9754036E-06
  2.2045000E-02   -2.1609569E-06
  2.2080000E-02   -2.3386697E-06
  2.2115000E-02   -2.5046218E-06
  2.2150001E-02   -2.6541697E-06
  2.2185000E-02   -2.7920282E-06
  2.2220001E-02   -2.9187436E-06
  2.2255000E-02   -3.0331082E-06
  2.2290001E-02   -3.1408376E-06
  2.2325000E-02   -3.2400499E-06
  2.2360001E-02   -3.3227755E-06
  2.2395000E-02   -3.3979079E-06
  2.2430001E-02   -3.4753368E-06
  2.2465000E-02   -3.5420012E-06
  2.2500001E-02   -3.5940132E-06
  2.2535000E-02   -3.6501260E-06
  2.2569999E-02   -3.7074649E-06
  2.2605000E-02   -3.7508298E-06
  2.2639999E-02   -3.7953980E-06
  2.2675000E-02   -3.8501221E-06
  2.2709999E-02   -3.8964031E-06
  2.2745000E-02   -3.9404540E-06
  2.2779999E-02   -3.9989663E-06
  2.2815000E-02   -4.0554473E-06
  2.2849999E-02   -4.1063035E-06
  2.2885000E-02   -4.1722760E-06
  2.2919999E-02   -4.2452316E-06
  2.2955000E-02   -4.3145369E-06
  2.2990000E-02   -4.3962550E-06
  2.3025000E-02   -4.4867597E-06
  2.3060000E-02   -4.5731872E-06
  2.3095001E-02   -4.6685172E-06
  2.3130000E-02   -4.7724734E-06
  2.3165001E-02   -4.8721840E-06
  2.3200000E-02   -4.9820114E-06
  2.3235001E-02   -5.1070906E-06
  2.3270000E-02   -5.2278256E-06
  2.3305001E-02   -5.3492945E-06
  2.3340000E-02   -5.4851371E-06
  2.3375001E-02   -5.6214440E-06
  2.3410000E-02   -5.7512598E-06
  2.3445001E-02   -5.8868777E-06
  2.3480000E-02   -6.0286047E-06
  2.3514999E-02   -6.1695159E-06
  2.3550000E-02   -6.3110888E-06
  2.3584999E-02   -6.4552041E-06
  2.3620000E-02   -6.5999398E-06
  2.3654999E-02   -6.7421115E-06
  2.3690000E-02   -6.8816648E-06
  2.3724999E-02   -7.0231972E-06
  2.3760000E-02   -7.1659924E-06
  2.3794999E-02   -7.3053297E-06
  2.3830000E-02   -7.4442955E-06
  2.3864999E-02   -7.5867824E-06
  2.3900000E-02   -7.7294835E-06
  2.3934999E-02   -7.8685389E-06
  2.3970000E-02   -8.0044574E-06
  2.4005000E-02   -8.1431972E-06
  2.4040001E-02   -8.2863207E-06
  2.4075000E-02   -8.4239600E-06
  2.4110001E-02   -8.5579932E-06
  2.4145000E-02   -8.7035351E-06
  2.4180001E-02   -8.8533134E-06
  2.4215000E-02   -8.9924015E-06
  2.4250001E-02   -9.1328984E-06
  2.4285000E-02   -9.2840637E-06
  2.4320001E-02   -9.4348015E-06
  2.4355000E-02   -9.5846099E-06
  2.4390001E-02   -9.7394077E-06
  2.4425000E-02   -9.8956652E-06
  2.4460001E-02   -1.0053873E-05
  2.4495000E-02   -1.0215257E-05
  2.4529999E-02   -1.0378416E-05
  2.4565000E-02   -1.0548789E-05
  2.4599999E-02   -1.0722038E-05
  2.4635000E-02   -1.0888357E-05
  2.4669999E-02   -1.1059455E-05
  2.4705000E-02   -1.1240271E-05
  2.4739999E-02   -1.1414228E-05
  2.4775000E-02   -1.1587073E-05
  2.4809999E-02   -1.1773465E-05
  2.4845000E-02   -1.1958427E-05
  2.4879999E-02   -1.2133986E-05
  2.4915000E-02   -1.2314386E-05
  2.4950000E-02   -1.2497650E-05
  2.4985000E-02   -1.2675468E-05
  2.5020000E-02   -1.2854369E-05
  2.5055001E-02   -1.3035871E-05
  2.5090000E-02   -1.3214550E-05
  2.5125001E-02   -1.3390124E-05
  2.5160000E-02   -1.3564078E-05
  2.5195001E-02   -1.3739147E-05
  2.5230000E-02   -1.3912605E-05
  2.5265001E-02   -1.4077809E-05
  2.5300000E-02   -1.4242908E-05
  2.5335001E-02   -1.4413756E-05
  2.5370000E-02   -1.4577758E-05
  2.5405001E-02   -1.4736398E-05
  2.5440000E-02   -1.4899906E-05
  2.5474999E-02   -1.5056782E-05
  2.5510000E-02   -1.5205843E-05
  2.5544999E-02   -1.5363237E-05
  2.5580000E-02   -1.5520185E-05
  2.5614999E-02   -1.5667350E-05
  2.5650000E-02   -1.5819593E-05
  2.5684999E-02   -1.5972835E-05
  2.5720000E-02   -1.6114062E-05
  2.5754999E-02   -1.6258513E-05
  2.5790000E-02   -1.6411786E-05
  2.5824999E-02   -1.6557982E-05
  2.5860000E-02   -1.6700315E-05
  2.5895000E-02   -1.6846772E-05
  2.5930000E-02   -1.6990893E-05
  2.5965000E-02   -1.7134977E-05
  2.6000001E-02   -1.7281842E-05
  2.6035000E-02   -1.7423457E-05
  2.6070001E-02   -1.7562452E-05
  2.6105000E-02   -1.7703731E-05
  2.6140001E-02   -1.7841578E-05
  2.6175000E-02   -1.7979195E-05
  2.6210001E-02   -1.8120898E-05
  2.6245000E-02   -1.8256989E-05
  2.6280001E-02   -1.8385717E-05
  2.6315000E-02   -1.8514038E-05
  2.6350001E-02   -1.8639279E-05
  2.6385000E-02   -1.8760476E-05
  2.6419999E-02   -1.8881154E-05
  2.6455000E-02   -1.8998022E-05
  2.6489999E-02   -1.9109862E-05
  2.6525000E-02   -1.9216850E-05
  2.6559999E-02   -1.9314153E-05
  2.6595000E-02   -1.9405750E-05
  2.6629999E-02   -1.9496867E-05
  2.6665000E-02   -1.9579185E-05
  2.6699999E-02   -1.9652707E-05
  2.6735000E-02   -1.9726303E-05
  2.6769999E-02   -1.9791893E-05
  2.6805000E-02   -1.9842862E-05
  2.6839999E-02   -1.9889359E-05
  2.6875000E-02   -1.9930285E-05
  2.6910000E-02   -1.9958585E-05
  2.6945001E-02   -1.9984765E-05
  2.6980000E-02   -2.0012696E-05