 -4.8000002E-03    1.0000000E-24
 -4.7650002E-03    1.0000002E-24
 -4.7300002E-03    1.0000001E-24
 -4.6950001E-03    1.0000000E-24
 -4.6600001E-03    1.0000002E-24
 -4.6250001E-03    1.0000002E-24
 -4.5900000E-03    1.0000002E-24
 -4.5550000E-03    1.0000000E-24
 -4.5200000E-03    1.0000000E-24
 -4.4849999E-03    1.0000002E-24
 -4.4499999E-03    1.0000002E-24
 -4.4149999E-03    9.9999972E-25
 -4.3799998E-03    1.0000001E-24
 -4.3449998E-03    1.0000003E-24
 -4.3100002E-03    1.0000001E-24
 -4.2750002E-03    1.0000002E-24
 -4.2400002E-03    1.0000002E-24
 -4.2050001E-03    9.9999992E-25
 -4.1700001E-03    1.0000002E-24
 -4.1350001E-03    1.0000001E-24
 -4.1000000E-03    9.9999953E-25
 -4.0650000E-03    1.0000002E-24
 -4.0300000E-03    1.0000005E-24
 -3.9949999E-03    9.9999943E-25
 -3.9599999E-03    9.9999943E-25
 -3.9249999E-03    1.0000004E-24
 -3.8900001E-03    1.0000001E-24
 -3.8550000E-03    9.9999982E-25
 -3.8200000E-03    1.0000005E-24
 -3.7849999E-03    1.0000005E-24
 -3.7499999E-03    9.9999982E-25
 -3.7150001E-03    1.0000004E-24
 -3.6800001E-03    1.0000006E-24
 -3.6450000E-03    9.9999963E-25
 -3.6100000E-03    9.9999963E-25
 -3.5750000E-03    1.0000005E-24
 -3.5399999E-03    1.0000000E-24
 -3.5049999E-03    9.9999953E-25
 -3.4700001E-03    1.0000004E-24
 -3.4350001E-03    1.0000005E-24
 -3.4000000E-03    9.9999953E-25
 -3.3650000E-03    9.9999972E-25
 -3.3300000E-03    1.0000006E-24
 -3.2949999E-03    1.0000002E-24
 -3.2599999E-03    9.9999953E-25
 -3.2250001E-03    9.9999972E-25
 -3.1900001E-03    1.0000004E-24
 -3.1550000E-03    1.0000001E-24
 -3.1200000E-03    1.0000002E-24
 -3.0850000E-03    1.0000008E-24
 -3.0499999E-03    1.0000005E-24
 -3.0149999E-03    9.9999972E-25
 -2.9800001E-03    9.9999992E-25
 -2.9450001E-03    1.0000004E-24
 -2.9100000E-03    9.9999982E-25
 -2.8750000E-03    9.9999963E-25
 -2.8400000E-03    1.0000002E-24
 -2.8049999E-03    1.0000003E-24
 -2.7699999E-03    9.9999982E-25
 -2.7350001E-03    1.0000002E-24
 -2.7000001E-03    1.0000009E-24
 -2.6650000E-03    1.0000000E-24
 -2.6300000E-03    9.9999903E-25
 -2.5950000E-03    9.9999963E-25
 -2.5599999E-03    1.0000002E-24
 -2.5249999E-03    1.0000007E-24
 -2.4900001E-03    1.0000010E-24
 -2.4550001E-03    1.0000007E-24
 -2.4200000E-03    1.0000001E-24
 -2.3850000E-03    9.9999963E-25
 -2.3500000E-03    9.9999923E-25
 -2.3149999E-03    9.9999933E-25
 -2.2799999E-03    9.9999972E-25
 -2.2450001E-03    1.0000005E-24
 -2.2100001E-03    1.0000005E-24
 -2.1750000E-03    9.9999972E-25
 -2.1400000E-03    9.9999933E-25
 -2.1050000E-03    1.0000004E-24
 -2.0699999E-03    1.0000010E-24
 -2.0349999E-03    1.0000001E-24
 -2.0000001E-03    9.9999943E-25
 -1.9650001E-03    1.0000007E-24
 -1.9300000E-03    1.0000011E-24
 -1.8950000E-03    9.9999953E-25
 -1.8600000E-03    9.9999963E-25
 -1.8250000E-03    1.0000010E-24
 -1.7900000E-03    9.9999992E-25
 -1.7550000E-03    9.9999903E-25
 -1.7199999E-03    1.0000001E-24
 -1.6850000E-03    1.0000004E-24
 -1.6500000E-03    1.0000000E-24
 -1.6150000E-03    1.0000002E-24
 -1.5800000E-03    9.9999903E-25
 -1.5450000E-03    9.9999884E-25
 -1.5100000E-03    1.0000004E-24
 -1.4750001E-03    1.0000010E-24
 -1.4400000E-03    1.0000005E-24
 -1.4050000E-03    1.0000008E-24
 -1.3700000E-03    1.0000003E-24
 -1.3350000E-03    9.9999953E-25
 -1.3000000E-03    9.9999943E-25
 -1.2650000E-03    9.9999933E-25
 -1.2300001E-03    1.0000000E-24
 -1.1950000E-03    1.0000010E-24
 -1.1600000E-03    9.9999982E-25
 -1.1250000E-03    9.9999893E-25
 -1.0900000E-03    1.0000005E-24
 -1.0550000E-03    1.0000005E-24
 -1.0200000E-03    9.9999923E-25
 -9.8500005E-04    9.9999972E-25
 -9.5000002E-04    1.0000003E-24
 -9.1499998E-04    1.0000000E-24
 -8.8000001E-04    1.0000005E-24
 -8.4499997E-04    1.0000008E-24
 -8.1000000E-04    1.0000005E-24
 -7.7500002E-04    9.9999992E-25
 -7.3999999E-04    9.9999943E-25
 -7.0500001E-04    9.9999953E-25
 -6.6999998E-04    9.9999972E-25
 -6.3500000E-04    9.9999982E-25
 -6.0000003E-04    1.0000005E-24
 -5.6499999E-04    1.0000005E-24
 -5.3000002E-04    9.9999953E-25
 -4.9499999E-04    9.9999992E-25
 -4.6000001E-04    1.0000008E-24
 -4.2500001E-04    1.0000004E-24
 -3.9000000E-04    1.0000002E-24
 -3.5500000E-04    1.0000005E-24
 -3.1999999E-04    1.0000006E-24
 -2.8499999E-04    9.9999943E-25
 -2.5000001E-04    9.9999913E-25
 -2.1499999E-04    1.0000007E-24
 -1.8000000E-04    1.0000005E-24
 -1.4500000E-04    9.9999893E-25
 -1.1000000E-04    9.9999963E-25
 -7.5000004E-05    1.0000012E-24
 -3.9999999E-05    1.0000000E-24
 -4.9999999E-06    9.9999864E-25
  2.9999999E-05    1.0000000E-24
  6.5000000E-05    1.0000011E-24
  9.9999997E-05    9.9999943E-25
  1.3499999E-04    9.9999943E-25
  1.7000000E-04    1.0000020E-24
  2.0500000E-04    1.0000013E-24
  2.3999999E-04    9.9999854E-25
  2.7500000E-04    9.9999893E-25
  3.1000000E-04    1.0000008E-24
  3.4500001E-04    1.0000001E-24
  3.8000001E-04    9.9999933E-25
  4.1499999E-04    1.0000012E-24
  4.4999999E-04    1.0000008E-24
  4.8500000E-04    9.9999844E-25
  5.2000000E-04    9.9999933E-25
  5.5499998E-04    1.0000003E-24
  5.9000001E-04    9.9999963E-25
  6.2499999E-04    1.0000003E-24
  6.6000002E-04    1.0000019E-24
  6.9500000E-04    1.0000003E-24
  7.3000003E-04    9.9999854E-25
  7.6500000E-04    9.9999953E-25
  7.9999998E-04    1.0000011E-24
  8.3500001E-04    1.0000015E-24
  8.6999999E-04    1.0000000E-24
  9.0500002E-04    9.9999913E-25
  9.4000000E-04    1.0000009E-24
  9.7499997E-04    1.0000001E-24
  1.0100000E-03    9.9999795E-25
  1.0450000E-03    1.0000009E-24
  1.0800000E-03    1.0000019E-24
  1.1150000E-03    9.9999824E-25
  1.1500000E-03    9.9999913E-25
  1.1849999E-03    1.0000021E-24
  1.2200000E-03    9.9999933E-25
  1.2550000E-03    9.9999815E-25
  1.2900000E-03    1.0000013E-24
  1.3250000E-03    1.0000004E-24
  1.3600000E-03    9.9999913E-25
  1.3950000E-03    1.0000003E-24
  1.4299999E-03    1.0000001E-24
  1.4650000E-03    9.9999982E-25
  1.5000000E-03    1.0000007E-24
  1.5350000E-03    1.0000003E-24
  1.5700000E-03    1.0000003E-24
  1.6050000E-03    1.0000009E-24
  1.6400000E-03    9.9999933E-25
  1.6749999E-03    9.9999943E-25
  1.7100000E-03    1.0000011E-24
  1.7450000E-03    9.9999972E-25
  1.7800000E-03    9.9999943E-25
  1.8150000E-03    1.0000012E-24
  1.8500000E-03    9.9999982E-25
  1.8850000E-03    9.9999834E-25
  1.9200000E-03    1.0000008E-24
  1.9550000E-03    1.0000019E-24
  1.9900000E-03    9.9999982E-25
  2.0250001E-03    9.9999893E-25
  2.0600001E-03    1.0000000E-24
  2.0949999E-03    1.0000009E-24
  2.1299999E-03    1.0000002E-24
  2.1650000E-03    9.9999943E-25
  2.2000000E-03    1.0000007E-24
  2.2350000E-03    1.0000006E-24
  2.2700001E-03    9.9999864E-25
  2.3050001E-03    9.9999972E-25
  2.3399999E-03    1.0000012E-24
  2.3749999E-03    9.9999963E-25
  2.4100000E-03    1.0000005E-24
  2.4450000E-03    1.0000027E-24
  2.4800000E-03    9.9999972E-25
  2.5150001E-03    9.9999765E-25
  2.5500001E-03    1.0000005E-24
  2.5849999E-03    9.9999972E-25
  2.6199999E-03    9.9999706E-25
  2.6550000E-03    9.9999943E-25
  2.6900000E-03    1.0000019E-24
  2.7250000E-03    1.0000001E-24
  2.7600001E-03    9.9999903E-25
  2.7950001E-03    1.0000009E-24
  2.8299999E-03    1.0000016E-24
  2.8649999E-03    9.9999943E-25
  2.9000000E-03    9.9999933E-25
  2.9350000E-03    1.0000019E-24
  2.9700000E-03    1.0000014E-24
  3.0050001E-03    9.9999844E-25
  3.0400001E-03    9.9999854E-25
  3.0749999E-03    1.0000005E-24
  3.1099999E-03    1.0000002E-24
  3.1450000E-03    1.0000001E-24
  3.1800000E-03    1.0000014E-24
  3.2150000E-03    1.0000007E-24
  3.2500001E-03    9.9999943E-25
  3.2850001E-03    9.9999992E-25
  3.3199999E-03    9.9999943E-25
  3.3549999E-03    9.9999933E-25
  3.3900000E-03    1.0000016E-24
  3.4250000E-03    1.0000011E-24
  3.4600000E-03    9.9999884E-25
  3.4950001E-03    1.0000001E-24
  3.5300001E-03    1.0000022E-24
  3.5649999E-03    9.9999992E-25
  3.5999999E-03    9.9999844E-25
  3.6350000E-03    1.0000014E-24
  3.6700000E-03    1.0000009E-24
  3.7050000E-03    9.9999844E-25
  3.7400001E-03    9.9999992E-25
  3.7750001E-03    1.0000019E-24
  3.8099999E-03    9.9999992E-25
  3.8449999E-03    9.9999893E-25
  3.8800000E-03    1.0000008E-24
  3.9149998E-03    1.0000007E-24
  3.9499998E-03    9.9999815E-25
  3.9849998E-03    9.9999923E-25
  4.0199999E-03    1.0000024E-24
  4.0549999E-03    1.0000002E-24
  4.0899999E-03    9.9999736E-25
  4.1250000E-03    1.0000004E-24
  4.1600000E-03    1.0000025E-24
  4.1950000E-03    9.9999963E-25
  4.2300001E-03    9.9999864E-25
  4.2650001E-03    1.0000017E-24
  4.3000001E-03    1.0000013E-24
  4.3350002E-03    9.9999775E-25
  4.3700002E-03    9.9999893E-25
  4.4049998E-03    1.0000028E-24
  4.4399998E-03    1.0000012E-24
  4.4749998E-03    9.9999765E-25
  4.5099999E-03    9.9999923E-25
  4.5449999E-03    1.0000007E-24
  4.5799999E-03    9.9999795E-25
  4.6150000E-03    9.9999716E-25
  4.6500000E-03    1.0000004E-24
  4.6850001E-03    1.0000018E-24
  4.7200001E-03    1.0000013E-24
  4.7550001E-03    1.0000018E-24
  4.7900002E-03    1.0000011E-24
  4.8250002E-03    1.0000004E-24
  4.8600002E-03    1.0000009E-24
  4.8949998E-03    9.9999963E-25
  4.9299998E-03    9.9999903E-25
  4.9649999E-03    1.0000005E-24
  4.9999999E-03    9.9999963E-25
  5.0349999E-03    9.9999864E-25
  5.0700000E-03    1.0000006E-24
  5.1050000E-03    1.0000002E-24
  5.1400000E-03    9.9999903E-25
  5.1750001E-03    1.0000013E-24
  5.2100001E-03    1.0000008E-24
  5.2450001E-03    9.9999755E-25
  5.2800002E-03    1.0000000E-24
  5.3150002E-03    1.0000029E-24
  5.3500002E-03    9.9999834E-25
  5.3849998E-03    9.9999686E-25
  5.4199998E-03    1.0000017E-24
  5.4549999E-03    1.0000014E-24
  5.4899999E-03    9.9999844E-25
  5.5249999E-03    1.0000017E-24
  5.5600000E-03    1.0000031E-24
  5.5950000E-03    9.9999805E-25
  5.6300000E-03    9.9999795E-25
  5.6650001E-03    1.0000027E-24
  5.7000001E-03    1.0000014E-24
  5.7350001E-03    9.9999824E-25
  5.7700002E-03    1.0000003E-24
  5.8050002E-03    1.0000008E-24
  5.8400002E-03    9.9999667E-25
  5.8749998E-03    9.9999834E-25
  5.9099998E-03    1.0000037E-24
  5.9449999E-03    1.0000008E-24
  5.9799999E-03    9.9999627E-25
  6.0149999E-03    1.0000007E-24
  6.0500000E-03    1.0000029E-24
  6.0850000E-03    9.9999854E-25
  6.1200000E-03    9.9999854E-25
  6.1550001E-03    1.0000022E-24
  6.1900001E-03    1.0000009E-24
  6.2250001E-03    9.9999893E-25
  6.2600002E-03    1.0000003E-24
  6.2950002E-03    1.0000008E-24
  6.3299998E-03    1.0000002E-24
  6.3649998E-03    1.0000006E-24
  6.3999998E-03    1.0000004E-24
  6.4349999E-03    9.9999903E-25
  6.4699999E-03    9.9999933E-25
  6.5049999E-03    1.0000008E-24
  6.5400000E-03    1.0000010E-24
  6.5750000E-03    9.9999992E-25
  6.6100000E-03    9.9999943E-25
  6.6450001E-03    9.9999884E-25
  6.6800001E-03    9.9999854E-25
  6.7150001E-03    1.0000012E-24
  6.7500002E-03    1.0000025E-24
  6.7850002E-03    9.9999903E-25
  6.8199998E-03    9.9999736E-25
  6.8549998E-03    1.0000005E-24
  6.8899998E-03    1.0000015E-24
  6.9249999E-03    9.9999972E-25
  6.9599999E-03    1.0000009E-24
  6.9949999E-03    1.0000028E-24
  7.0300000E-03    1.0000009E-24
  7.0650000E-03    9.9999824E-25
  7.1000000E-03    9.9999933E-25
  7.1350001E-03    1.0000011E-24
  7.1700001E-03    9.9999953E-25
  7.2050001E-03    9.9999824E-25
  7.2400002E-03    1.0000006E-24
  7.2750002E-03    1.0000020E-24
  7.3099998E-03    9.9999913E-25
  7.3449998E-03    9.9999903E-25
  7.3799998E-03    1.0000008E-24
  7.4149999E-03    1.0000006E-24
  7.4499999E-03    1.0000010E-24
  7.4850000E-03    1.0000000E-24
  7.5200000E-03    9.9999736E-25
  7.5550000E-03    1.0000001E-24
  7.5900001E-03    1.0000042E-24
  7.6250001E-03    9.9999874E-25
  7.6600001E-03    9.9999361E-25
  7.6950002E-03    1.0000002E-24
  7.7300002E-03    1.0000065E-24
  7.7650002E-03    1.0000016E-24
  7.7999998E-03    9.9999193E-25
  7.8349998E-03    9.9999361E-25
  7.8699999E-03    1.0000113E-24
  7.9049999E-03    1.0000173E-24
  7.9399999E-03    9.9998582E-25
  7.9750000E-03    9.9996580E-25
  8.0100000E-03    1.0000161E-24
  8.0450000E-03    1.0000616E-24
  8.0800001E-03    9.9998838E-25
  8.1150001E-03    9.9989569E-25
  8.1500001E-03    9.9999568E-25
  8.1850002E-03    1.0001733E-24
  8.2200002E-03    1.0000512E-24
  8.2550002E-03    9.9972836E-25
  8.2900003E-03    9.9984777E-25
  8.3250003E-03    1.0004024E-24
  8.3600003E-03    1.0003486E-24
  8.3950004E-03    9.9943953E-25
  8.4300004E-03    9.9929399E-25
  8.4650004E-03    1.0007169E-24
  8.5000005E-03    1.0013215E-24
  8.5349996E-03    9.9919942E-25
  8.5699996E-03    9.9767308E-25
  8.6049996E-03    1.0006600E-24
  8.6399997E-03    1.0038886E-24
  8.6749997E-03    9.9999716E-25
  8.7099997E-03    9.9382353E-25
  8.7449998E-03    9.9832852E-25
  8.7799998E-03    1.0093155E-24
  8.8149998E-03    1.0051891E-24
  8.8499999E-03    9.8674538E-25
  8.8849999E-03    9.8817854E-25
  8.9199999E-03    1.0175343E-24
  8.9550000E-03    1.0234075E-24
  8.9900000E-03    9.7911532E-25
  9.0250000E-03    9.5759253E-25
  9.0600001E-03    1.0206016E-24
  9.0950001E-03    1.0717969E-24
  9.1300001E-03    9.8838818E-25
  9.1650002E-03    8.8540131E-25
  9.2000002E-03    9.8519951E-25
  9.2350002E-03    1.1727536E-24
  9.2700003E-03    1.0725598E-24
  9.3050003E-03    7.5509036E-25
  9.3400003E-03    8.1753205E-25
  9.3750004E-03    1.3225246E-24
  9.4100004E-03    1.3734512E-24
  9.4450004E-03    6.1643292E-25
  9.4799995E-03    3.1764051E-25
  9.5149996E-03    1.3831193E-24
  9.5499996E-03    2.1505725E-24
  9.5849996E-03    7.5959786E-25
  9.6199997E-03   -8.1461075E-25
  9.6549997E-03    8.2250272E-25
  9.6899997E-03    3.6866929E-24
  9.7249998E-03    2.0733746E-24
  9.7599998E-03   -2.7198709E-24
  9.7949998E-03   -1.7345261E-24
  9.8299999E-03    5.7513766E-24
  9.8649999E-03    6.5353107E-24
  9.8999999E-03   -4.4180747E-24
  9.9350000E-03   -8.9122397E-24
  9.9700000E-03    6.0402204E-24
  1.0005000E-02    1.7287726E-23
  1.0040000E-02   -1.4769601E-24
  1.0075000E-02   -2.3908967E-23
  1.0110000E-02   -3.0304084E-24
  1.0145000E-02    3.6558159E-23
  1.0180000E-02    1.7987307E-23
  1.0215000E-02   -4.6086141E-23
  1.0250000E-02   -3.8672265E-23
  1.0285000E-02    5.7724726E-23
  1.0320000E-02    7.6936784E-23
  1.0355000E-02   -5.8161200E-23
  1.0390000E-02   -1.2859396E-22
  1.0425000E-02    4.6412445E-23
  1.0460000E-02    2.0414227E-22
  1.0495000E-02   -6.5301930E-25
  1.0530000E-02   -2.9451878E-22
  1.0565000E-02   -9.0681341E-23
  1.0600000E-02    3.9956325E-22
  1.0635000E-02    2.6092969E-22
  1.0670000E-02   -4.9094659E-22
  1.0705000E-02   -5.3145981E-22
  1.0740000E-02    5.3756854E-22
  1.0775000E-02    9.3884151E-22
  1.0810000E-02   -4.6587303E-22
  1.0845000E-02   -1.4932604E-21
  1.0880000E-02    1.8439012E-22
  1.0915000E-02    2.1942789E-21
  1.0950000E-02    4.5299645E-22
  1.0985000E-02   -2.9742347E-21
  1.1020000E-02   -1.6128918E-21
  1.1055000E-02    3.6963430E-21
  1.1090000E-02    3.4991606E-21
  1.1125000E-02   -4.0807501E-21
  1.1160000E-02   -6.2844461E-21
  1.1195000E-02    3.6908217E-21
  1.1230000E-02    1.0074548E-20
  1.1265000E-02   -1.8620599E-21
  1.1300000E-02   -1.4768205E-20
  1.1335000E-02   -2.2810570E-21
  1.1370000E-02    1.9933011E-20
  1.1405000E-02    9.8211671E-21
  1.1440000E-02   -2.4570164E-20
  1.1475000E-02   -2.1892107E-20
  1.1510000E-02    2.6911139E-20
  1.1545000E-02    3.9453439E-20
  1.1580000E-02   -2.4155606E-20
  1.1615000E-02   -6.2820251E-20
  1.1650000E-02    1.2348071E-20
  1.1685000E-02    9.1035524E-20
  1.1720000E-02    1.3622857E-20
  1.1755000E-02   -1.2094770E-19
  1.1790000E-02   -5.9622022E-20
  1.1825000E-02    1.4616205E-19
  1.1860000E-02    1.3139459E-19
  1.1895000E-02   -1.5587581E-19
  1.1930000E-02   -2.3288309E-19
  1.1965000E-02    1.3398124E-19
  1.2000000E-02    3.6367347E-19
  1.2035000E-02   -5.8744868E-20
  1.2070000E-02   -5.1535704E-19
  1.2105000E-02   -9.6217946E-20
  1.2140000E-02    6.6705215E-19
  1.2175000E-02    3.5900755E-19
  1.2210000E-02   -7.8042299E-19
  1.2245000E-02   -7.5357260E-19
  1.2280000E-02    7.9522228E-19
  1.2315000E-02    1.2902379E-18
  1.2350000E-02   -6.2686259E-19
  1.2385000E-02   -1.9520687E-18
  1.2420000E-02    1.6834013E-19
  1.2455000E-02    2.6774678E-18
  1.2490000E-02    7.0069984E-19
  1.2525000E-02   -3.3403861E-18
  1.2560000E-02   -2.0944257E-18
  1.2595000E-02    3.7315379E-18
  1.2630000E-02    4.0878232E-18
  1.2665000E-02   -3.5459227E-18
  1.2700000E-02   -6.6683839E-18
  1.2735000E-02    2.3847553E-18
  1.2770000E-02    9.6731700E-18
  1.2805000E-02    2.1815529E-19
  1.2840000E-02   -1.2716003E-17
  1.2875000E-02   -4.7340820E-18
  1.2910000E-02    1.5115743E-17
  1.2945000E-02    1.1530520E-17
  1.2980000E-02   -1.5843970E-17
  1.3015000E-02   -2.0708702E-17
  1.3050000E-02    1.3518410E-17
  1.3085000E-02    3.1889934E-17
  1.3120000E-02   -6.4765078E-18
  1.3155000E-02   -4.3964706E-17
  1.3190000E-02   -7.0337492E-18
  1.3225000E-02    5.4841912E-17
  1.3260000E-02    2.8510064E-17
  1.3295000E-02   -6.1254240E-17
  1.3330000E-02   -5.8677030E-17
  1.3365000E-02    5.8707913E-17
  1.3400000E-02    9.6798204E-17
  1.3435000E-02   -4.1680423E-17
  1.3470000E-02   -1.3986598E-16
  1.3505000E-02    4.1876606E-18
  1.3540000E-02    1.8178355E-16
  1.3575000E-02    5.9175965E-17
  1.3610000E-02   -2.1271370E-16
  1.3645000E-02   -1.5165363E-16
  1.3680000E-02    2.1886147E-16
  1.3715000E-02    2.7222532E-16
  1.3750000E-02   -1.8300930E-16
  1.3785000E-02   -4.1313804E-16
  1.3820000E-02    8.6149537E-17
  1.3855000E-02    5.5740522E-16
  1.3890000E-02    8.9476643E-17
  1.3925000E-02   -6.7680950E-16
  1.3960000E-02   -3.5576247E-16
  1.3995000E-02    7.3117552E-16
  1.4030000E-02    7.1261586E-16
  1.4065000E-02   -6.6982863E-16
  1.4100000E-02   -1.1408352E-15
  1.4135000E-02    4.3618533E-16
  1.4170000E-02    1.5949258E-15
  1.4205000E-02    2.3674606E-17
  1.4240000E-02   -1.9974428E-15
  1.4275000E-02   -7.4807806E-16
  1.4310000E-02    2.2369397E-15
  1.4345000E-02    1.7428084E-15
  1.4380000E-02   -2.1720258E-15
  1.4415000E-02   -2.9615563E-15
  1.4450000E-02    1.6440537E-15
  1.4485000E-02    4.2865585E-15
  1.4520000E-02   -5.0043178E-16
  1.4555000E-02   -5.5136949E-15
  1.4590000E-02   -1.3706399E-15
  1.4625000E-02    6.3475904E-15
  1.4660000E-02    3.9952486E-15
  1.4695000E-02   -6.4132646E-15
  1.4730000E-02   -7.2630102E-15
  1.4765000E-02    5.2902641E-15
  1.4800000E-02    1.0877854E-14
  1.4835000E-02   -2.5740664E-15
  1.4870000E-02   -1.4321697E-14
  1.4905000E-02   -2.0343527E-15
  1.4940000E-02    1.6845290E-14
  1.4975000E-02    8.6152322E-15
  1.5010000E-02   -1.7501335E-14
  1.5045000E-02   -1.6904541E-14
  1.5080000E-02    1.5234713E-14
  1.5115000E-02    2.6176893E-14
  1.5150000E-02   -9.0381397E-15
  1.5185000E-02   -3.5164231E-14
  1.5220000E-02   -1.8263388E-15
  1.5255000E-02    4.2044869E-14
  1.5290000E-02    1.7554639E-14
  1.5325000E-02   -4.4538324E-14
  1.5360000E-02   -3.7508093E-14
  1.5395000E-02    4.0135375E-14
  1.5430000E-02    5.9952179E-14
  1.5465000E-02   -2.6478745E-14
  1.5500000E-02   -8.1892060E-14
  1.5535000E-02    1.8870526E-15
  1.5570000E-02    9.9083753E-14
  1.5605000E-02    3.4021685E-14
  1.5640000E-02   -1.0629522E-13
  1.5675001E-02   -7.9686786E-14
  1.5710000E-02    9.7875558E-14
  1.5745001E-02    1.3106339E-13
  1.5780000E-02   -6.8647433E-14
  1.5814999E-02   -1.8133344E-13
  1.5850000E-02    1.5087734E-14
  1.5884999E-02    2.2103180E-13
  1.5920000E-02    6.3322211E-14
  1.5954999E-02   -2.3873685E-13
  1.5990000E-02   -1.6277210E-13
  1.6024999E-02    2.2241851E-13
  1.6060000E-02    2.7409566E-13
  1.6094999E-02   -1.6143994E-13
  1.6130000E-02   -3.8236176E-13
  1.6164999E-02    4.9078868E-14
  1.6200000E-02    4.6740503E-13
  1.6235000E-02    1.1471588E-13
  1.6270000E-02   -5.0555995E-13
  1.6305000E-02   -3.2079683E-13
  1.6340001E-02    4.7270223E-13
  1.6375000E-02    5.4907950E-13
  1.6410001E-02   -3.4850660E-13
  1.6445000E-02   -7.6822506E-13
  1.6480001E-02    1.2153549E-13
  1.6515000E-02    9.3733636E-13
  1.6550001E-02    2.0551067E-13
  1.6585000E-02   -1.0100400E-12
  1.6620001E-02   -6.1138995E-13
  1.6655000E-02    9.4099761E-13
  1.6690001E-02    1.0538196E-12
  1.6725000E-02   -6.9445437E-13
  1.6759999E-02   -1.4700683E-12
  1.6795000E-02    2.5383306E-13
  1.6829999E-02    1.7815378E-12
  1.6865000E-02    3.6905727E-13
  1.6899999E-02   -1.9027525E-12
  1.6935000E-02   -1.1271661E-12
  1.6969999E-02    1.7544722E-12
  1.7005000E-02    1.9356179E-12
  1.7039999E-02   -1.2796954E-12
  1.7075000E-02   -2.6753311E-12
  1.7109999E-02    4.6046055E-13
  1.7145000E-02    3.2040197E-12
  1.7180000E-02    6.6758968E-13
  1.7215000E-02   -3.3745231E-12
  1.7250000E-02   -2.0061192E-12
  1.7285001E-02    3.0594618E-12
  1.7320000E-02    3.3939860E-12
  1.7355001E-02   -2.1789020E-12
  1.7390000E-02   -4.6183691E-12
  1.7425001E-02    7.2717066E-13
  1.7460000E-02    5.4383338E-12
  1.7495001E-02    1.2068845E-12
  1.7530000E-02   -5.6195803E-12
  1.7565001E-02   -3.4313208E-12
  1.7600000E-02    4.9768011E-12
  1.7635001E-02    5.6590856E-12
  1.7670000E-02   -3.4176420E-12
  1.7704999E-02   -7.5349050E-12
  1.7740000E-02    9.8057164E-13
  1.7774999E-02    8.6808269E-12
  1.7810000E-02    2.1420606E-12
  1.7844999E-02   -8.7560393E-12
  1.7880000E-02   -5.6029591E-12
  1.7914999E-02    7.5235599E-12
  1.7950000E-02    8.9265947E-12
  1.7984999E-02   -4.9123604E-12
  1.8020000E-02   -1.1563976E-11
  1.8054999E-02    1.0631453E-12
  1.8090000E-02    1.2972020E-11
  1.8124999E-02    3.6549179E-12
  1.8160000E-02   -1.2706507E-11
  1.8195000E-02   -8.6638049E-12
  1.8230001E-02    1.0515952E-11
  1.8265000E-02    1.3237618E-11
  1.8300001E-02   -6.4176607E-12
  1.8335000E-02   -1.6599670E-11
  1.8370001E-02    7.3984921E-13
  1.8405000E-02    1.8045562E-11
  1.8440001E-02    5.8840645E-12
  1.8475000E-02   -1.7072829E-11
  1.8510001E-02   -1.2575544E-11
  1.8545000E-02    1.3495402E-11
  1.8580001E-02    1.8323312E-11
  1.8615000E-02   -7.5190158E-12
  1.8650001E-02   -2.2134445E-11
  1.8685000E-02   -2.4073191E-13
  1.8719999E-02    2.3203302E-11
  1.8755000E-02    8.8105313E-12
  1.8789999E-02   -2.1068957E-11
  1.8825000E-02   -1.6980081E-11
  1.8859999E-02    1.5731522E-11
  1.8895000E-02    2.3478353E-11
  1.8929999E-02   -7.7005893E-12
  1.8965000E-02   -2.7179155E-11
  1.8999999E-02   -2.0388448E-12
  1.9035000E-02    2.7303703E-11
  1.9069999E-02    1.2147771E-11
  1.9105000E-02   -2.3581321E-11
  1.9140000E-02   -2.1127686E-11
  1.9175000E-02    1.6335910E-11
  1.9210000E-02    2.7559675E-11
  1.9245001E-02   -6.4748116E-12
  1.9280000E-02   -3.0347502E-11
  1.9315001E-02   -4.6241279E-12
  1.9350000E-02    2.8923563E-11
  1.9385001E-02    1.5316883E-11
  1.9420000E-02   -2.3375061E-11
  1.9455001E-02   -2.3957310E-11
  1.9490000E-02    1.4462911E-11
  1.9525001E-02    2.9178594E-11
  1.9560000E-02   -3.5212243E-12
  1.9595001E-02   -3.0138052E-11
  1.9630000E-02   -7.7480912E-12
  1.9664999E-02    2.6683220E-11
  1.9700000E-02    1.7557827E-11
  1.9734999E-02   -1.9401121E-11
  1.9770000E-02   -2.4346299E-11
  1.9804999E-02    9.5360933E-12
  1.9840000E-02    2.7059388E-11
  1.9874999E-02    1.2155052E-12
  1.9910000E-02   -2.5350394E-11
  1.9944999E-02   -1.0999403E-11
  1.9980000E-02    1.9658634E-11
  2.0014999E-02    1.8138930E-11
  2.0050000E-02   -1.1143604E-11
  2.0085000E-02   -2.1447847E-11
  2.0120000E-02    1.4829440E-12
  2.0155000E-02    2.0462021E-11
  2.0190001E-02    7.4351957E-12
  2.0225000E-02   -1.5541216E-11
  2.0260001E-02   -1.3869616E-11
  2.0295000E-02    7.8162277E-12
  2.0330001E-02    1.6567482E-11
  2.0365000E-02    1.0154493E-12
  2.0400001E-02   -1.5022702E-11
  2.0435000E-02   -9.0121547E-12
  2.0470001E-02    9.5965319E-12
  2.0505000E-02    1.4370821E-11
  2.0540001E-02   -1.4703040E-12
  2.0575000E-02   -1.5796458E-11
  2.0609999E-02   -7.5674710E-12
  2.0645000E-02    1.2784330E-11
  2.0679999E-02    1.5465839E-11
  2.0715000E-02   -5.7527720E-12
  2.0749999E-02   -2.0321958E-11
  2.0785000E-02   -4.0054743E-12
  2.0819999E-02    2.0778556E-11
  2.0855000E-02    1.4552370E-11
  2.0889999E-02   -1.6326092E-11
  2.0925000E-02   -2.3675017E-11
  2.0959999E-02    7.4426940E-12
  2.0995000E-02    2.9326909E-11
  2.1029999E-02    4.4641239E-12
  2.1065000E-02   -3.0048641E-11
  2.1100000E-02   -1.7306557E-11
  2.1135001E-02    2.5282890E-11
  2.1170000E-02    2.8712949E-11
  2.1205001E-02   -1.5512753E-11
  2.1240000E-02   -3.6490502E-11
  2.1275001E-02    2.1917110E-12
  2.1310000E-02    3.9061424E-11
  2.1345001E-02    1.2525584E-11
  2.1380000E-02   -3.5777936E-11
  2.1415001E-02   -2.6196044E-11
  2.1450000E-02    2.7050969E-11
  2.1485001E-02    3.6560727E-11
  2.1520000E-02   -1.4263015E-11
  2.1555001E-02   -4.1974091E-11
  2.1590000E-02   -5.1184041E-13
  2.1624999E-02    4.1704824E-11
  2.1660000E-02    1.4922235E-11
  2.1694999E-02   -3.6045136E-11
  2.1730000E-02   -2.6798678E-11
  2.1764999E-02    2.6213167E-11
  2.1800000E-02    3.4565975E-11
  2.1834999E-02   -1.4063497E-11
  2.1870000E-02   -3.7514224E-11
  2.1904999E-02    1.6804970E-12
  2.1940000E-02    3.5878939E-11
  2.1974999E-02    9.0575577E-12
  2.2010000E-02   -3.0721186E-11
  2.2045000E-02   -1.6853468E-11
  2.2080000E-02    2.3638714E-11
  2.2115000E-02    2.1235128E-11
  2.2150001E-02   -1.6357735E-11
  2.2185000E-02   -2.2603612E-11
  2.2220001E-02    1.0299581E-11
  2.2255000E-02    2.2069952E-11
  2.2290001E-02   -6.2232697E-12
  2.2325000E-02   -2.1116090E-11
  2.2360001E-02    4.0306894E-12
  2.2395000E-02    2.1158795E-11
  2.2430001E-02   -2.7666309E-12
  2.2465000E-02   -2.3083408E-11
  2.2500001E-02    8.5515216E-13
  2.2535000E-02    2.6858621E-11
  2.2569999E-02    3.4350079E-12
  2.2605000E-02   -3.1373404E-11
  2.2639999E-02   -1.1404369E-11
  2.2675000E-02    3.4574125E-11
  2.2709999E-02    2.3374018E-11
  2.2745000E-02   -3.3875808E-11
  2.2779999E-02   -3.8281382E-11
  2.2815000E-02    2.6819809E-11
  2.2849999E-02    5.3543694E-11
  2.2885000E-02   -1.1911962E-11
  2.2919999E-02   -6.5356498E-11
  2.2955000E-02   -1.0576911E-11
  2.2990000E-02    6.9491711E-11
  2.3025000E-02    3.8182832E-11
  2.3060000E-02   -6.2381267E-11
  2.3095001E-02   -6.6339483E-11
  2.3130000E-02    4.2235587E-11
  2.3165001E-02    8.8993583E-11
  2.3200000E-02   -1.0025625E-11
  2.3235001E-02   -9.9802139E-11
  2.3270000E-02   -2.9981524E-11
  2.3305001E-02    9.3843634E-11
  2.3340000E-02    7.0601837E-11
  2.3375001E-02   -6.9303424E-11
  2.3410000E-02   -1.0310294E-10
  2.3445001E-02    2.8498580E-11
  2.3480000E-02    1.1913658E-10
  2.3514999E-02    2.1968417E-11
  2.3550000E-02   -1.1287670E-10
  2.3584999E-02   -7.2020827E-11
  2.3620000E-02    8.3083602E-11
  2.3654999E-02    1.1016340E-10
  2.3690000E-02   -3.4308410E-11
  2.3724999E-02   -1.2652095E-10
  2.3760000E-02   -2.3636846E-11
  2.3794999E-02    1.1568333E-10
  2.3830000E-02    7.7778388E-11
  2.3864999E-02   -7.8440469E-11
  2.3900000E-02   -1.1486392E-10
  2.3934999E-02    2.2318340E-11
  2.3970000E-02    1.2474614E-10
  2.4005000E-02    3.9457226E-11
  2.4040001E-02   -1.0376356E-10
  2.4075000E-02   -9.1199874E-11
  2.4110001E-02    5.6440391E-11
  2.4145000E-02    1.1926213E-10
  2.4180001E-02    5.5820678E-12
  2.4215000E-02   -1.1569481E-10
  2.4250001E-02   -6.6382164E-11
  2.4285000E-02    8.0381327E-11
  2.4320001E-02    1.0934072E-10
  2.4355000E-02   -2.1955042E-11
  2.4390001E-02   -1.2175526E-10
  2.4425000E-02   -4.3670338E-11
  2.4460001E-02    9.9371351E-11
  2.4495000E-02    9.8055501E-11
  2.4529999E-02   -4.7862665E-11
  2.4565000E-02   -1.2583702E-10
  2.4599999E-02   -1.9222917E-11
  2.4635000E-02    1.1841168E-10
  2.4669999E-02    8.3682658E-11
  2.4705000E-02   -7.6283549E-11
  2.4739999E-02   -1.2674399E-10
  2.4775000E-02    1.0346679E-11
  2.4809999E-02    1.3511316E-10
  2.4845000E-02    6.0712456E-11
  2.4879999E-02   -1.0607557E-10
  2.4915000E-02   -1.1706765E-10
  2.4950000E-02    4.7526715E-11
  2.4985000E-02    1.4349799E-10
  2.5020000E-02    2.5186832E-11
  2.5055001E-02   -1.3231072E-10
  2.5090000E-02   -9.2311082E-11
  2.5125001E-02    8.6104686E-11
  2.5160000E-02    1.3469389E-10
  2.5195001E-02   -1.8762757E-11
  2.5230000E-02   -1.4134648E-10
  2.5265001E-02   -4.9702516E-11
  2.5300000E-02    1.1339311E-10
  2.5335001E-02    1.0163502E-10
  2.5370000E-02   -6.0464821E-11
  2.5405001E-02   -1.2471489E-10
  2.5440000E-02   -1.7250034E-12
  2.5474999E-02    1.1499132E-10
  2.5510000E-02    5.5754915E-11
  2.5544999E-02   -7.7129324E-11
  2.5580000E-02   -8.4936370E-11
  2.5614999E-02    2.8571806E-11
  2.5650000E-02    8.7453982E-11
  2.5684999E-02    1.7600237E-11
  2.5720000E-02   -6.4554709E-11
  2.5754999E-02   -4.5184245E-11
  2.5790000E-02    3.2322083E-11
  2.5824999E-02    5.6460822E-11
  2.5860000E-02    7.6695820E-12
  2.5895000E-02   -3.7957373E-11
  2.5930000E-02   -2.5611584E-11
  2.5965000E-02    1.8649686E-11
  2.6000001E-02    3.8825058E-11
  2.6035000E-02    1.7963353E-11
  2.6070001E-02   -1.3404050E-11
  2.6105000E-02   -1.7680619E-11
  2.6140001E-02    1.1235938E-11
  2.6175000E-02    4.2869215E-11
  2.6210001E-02    4.0853168E-11
  2.6245000E-02    5.6555069E-12
  2.6280001E-02   -1.6178925E-11
  2.6315000E-02    1.6042223E-11
  2.6350001E-02    7.3742061E-11
  2.6385000E-02    8.1950759E-11
  2.6419999E-02    2.7399017E-11
  2.6455000E-02   -1.6203787E-12
  2.6489999E-02    6.2261168E-11
  2.6525000E-02    1.4620462E-10
  2.6559999E-02    1.3358027E-10
  2.6595000E-02    5.7158021E-11
  2.6629999E-02    6.6753200E-11
  2.6665000E-02    1.8788751E-10
  2.6699999E-02    2.6531979E-10
  2.6735000E-02    2.1424729E-10
  2.6769999E-02    1.7054656E-10
  2.6805000E-02    2.6902899E-10
  2.6839999E-02    4.1412410E-10
  2.6875000E-02    4.4304632E-10
  2.6910000E-02    4.0810949E-10
  2.6945001E-02    4.8634907E-10
  2.6980000E-02    6.7154798E-10