 -4.8000002E-03    1.0000000E-24
 -4.7650002E-03    1.0000002E-24
 -4.7300002E-03    1.0000002E-24
 -4.6950001E-03    1.0000000E-24
 -4.6600001E-03    1.0000001E-24
 -4.6250001E-03    1.0000005E-24
 -4.5900000E-03    1.0000002E-24
 -4.5550000E-03    9.9999963E-25
 -4.5200000E-03    1.0000005E-24
 -4.4849999E-03    1.0000006E-24
 -4.4499999E-03    9.9999923E-25
 -4.4149999E-03    1.0000000E-24
 -4.3799998E-03    1.0000013E-24
 -4.3449998E-03    9.9999982E-25
 -4.3100002E-03    9.9999933E-25
 -4.2750002E-03    1.0000011E-24
 -4.2400002E-03    1.0000004E-24
 -4.2050001E-03    9.9999884E-25
 -4.1700001E-03    1.0000008E-24
 -4.1350001E-03    1.0000013E-24
 -4.1000000E-03    9.9999893E-25
 -4.0650000E-03    9.9999953E-25
 -4.0300000E-03    1.0000007E-24
 -3.9949999E-03    9.9999972E-25
 -3.9599999E-03    9.9999982E-25
 -3.9249999E-03    1.0000011E-24
 -3.8900001E-03    1.0000003E-24
 -3.8550000E-03    9.9999874E-25
 -3.8200000E-03    1.0000000E-24
 -3.7849999E-03    1.0000007E-24
 -3.7499999E-03    1.0000003E-24
 -3.7150001E-03    1.0000007E-24
 -3.6800001E-03    1.0000006E-24
 -3.6450000E-03    9.9999963E-25
 -3.6100000E-03    9.9999972E-25
 -3.5750000E-03    1.0000003E-24
 -3.5399999E-03    9.9999943E-25
 -3.5049999E-03    9.9999963E-25
 -3.4700001E-03    1.0000008E-24
 -3.4350001E-03    1.0000006E-24
 -3.4000000E-03    9.9999943E-25
 -3.3650000E-03    1.0000004E-24
 -3.3300000E-03    1.0000014E-24
 -3.2949999E-03    9.9999982E-25
 -3.2599999E-03    9.9999893E-25
 -3.2250001E-03    1.0000004E-24
 -3.1900001E-03    1.0000005E-24
 -3.1550000E-03    9.9999953E-25
 -3.1200000E-03    1.0000003E-24
 -3.0850000E-03    1.0000006E-24
 -3.0499999E-03    9.9999953E-25
 -3.0149999E-03    9.9999982E-25
 -2.9800001E-03    1.0000010E-24
 -2.9450001E-03    1.0000006E-24
 -2.9100000E-03    9.9999963E-25
 -2.8750000E-03    9.9999972E-25
 -2.8400000E-03    1.0000006E-24
 -2.8049999E-03    1.0000009E-24
 -2.7699999E-03    9.9999992E-25
 -2.7350001E-03    9.9999913E-25
 -2.7000001E-03    9.9999982E-25
 -2.6650000E-03    1.0000003E-24
 -2.6300000E-03    9.9999992E-25
 -2.5950000E-03    1.0000003E-24
 -2.5599999E-03    1.0000007E-24
 -2.5249999E-03    1.0000002E-24
 -2.4900001E-03    1.0000001E-24
 -2.4550001E-03    1.0000000E-24
 -2.4200000E-03    9.9999933E-25
 -2.3850000E-03    9.9999992E-25
 -2.3500000E-03    1.0000014E-24
 -2.3149999E-03    1.0000006E-24
 -2.2799999E-03    9.9999815E-25
 -2.2450001E-03    9.9999963E-25
 -2.2100001E-03    1.0000021E-24
 -2.1750000E-03    1.0000000E-24
 -2.1400000E-03    9.9999815E-25
 -2.1050000E-03    1.0000006E-24
 -2.0699999E-03    1.0000024E-24
 -2.0349999E-03    1.0000001E-24
 -2.0000001E-03    9.9999893E-25
 -1.9650001E-03    1.0000002E-24
 -1.9300000E-03    9.9999982E-25
 -1.8950000E-03    9.9999923E-25
 -1.8600000E-03    9.9999992E-25
 -1.8250000E-03    1.0000007E-24
 -1.7900000E-03    1.0000010E-24
 -1.7550000E-03    1.0000016E-24
 -1.7199999E-03    1.0000003E-24
 -1.6850000E-03    9.9999815E-25
 -1.6500000E-03    9.9999923E-25
 -1.6150000E-03    1.0000011E-24
 -1.5800000E-03    1.0000009E-24
 -1.5450000E-03    1.0000007E-24
 -1.5100000E-03    9.9999923E-25
 -1.4750001E-03    9.9999775E-25
 -1.4400000E-03    1.0000006E-24
 -1.4050000E-03    1.0000021E-24
 -1.3700000E-03    9.9999893E-25
 -1.3350000E-03    9.9999943E-25
 -1.3000000E-03    1.0000024E-24
 -1.2650000E-03    9.9999992E-25
 -1.2300001E-03    9.9999746E-25
 -1.1950000E-03    1.0000006E-24
 -1.1600000E-03    1.0000019E-24
 -1.1250000E-03    9.9999933E-25
 -1.0900000E-03    9.9999884E-25
 -1.0550000E-03    1.0000010E-24
 -1.0200000E-03    1.0000020E-24
 -9.8500005E-04    1.0000004E-24
 -9.5000002E-04    9.9999943E-25
 -9.1499998E-04    1.0000006E-24
 -8.8000001E-04    1.0000010E-24
 -8.4499997E-04    9.9999943E-25
 -8.1000000E-04    9.9999933E-25
 -7.7500002E-04    1.0000009E-24
 -7.3999999E-04    9.9999992E-25
 -7.0500001E-04    9.9999874E-25
 -6.6999998E-04    1.0000004E-24
 -6.3500000E-04    1.0000014E-24
 -6.0000003E-04    9.9999963E-25
 -5.6499999E-04    9.9999903E-25
 -5.3000002E-04    1.0000014E-24
 -4.9499999E-04    1.0000012E-24
 -4.6000001E-04    9.9999884E-25
 -4.2500001E-04    9.9999972E-25
 -3.9000000E-04    1.0000018E-24
 -3.5500000E-04    1.0000007E-24
 -3.1999999E-04    9.9999864E-25
 -2.8499999E-04    9.9999844E-25
 -2.5000001E-04    1.0000009E-24
 -2.1499999E-04    1.0000022E-24
 -1.8000000E-04    9.9999854E-25
 -1.4500000E-04    9.9999755E-25
 -1.1000000E-04    1.0000028E-24
 -7.5000004E-05    1.0000036E-24
 -3.9999999E-05    9.9999795E-25
 -4.9999999E-06    9.9999795E-25
  2.9999999E-05    1.0000007E-24
  6.5000000E-05    9.9999943E-25
  9.9999997E-05    9.9999953E-25
  1.3499999E-04    1.0000018E-24
  1.7000000E-04    1.0000009E-24
  2.0500000E-04    9.9999963E-25
  2.3999999E-04    9.9999972E-25
  2.7500000E-04    9.9999923E-25
  3.1000000E-04    1.0000002E-24
  3.4500001E-04    1.0000021E-24
  3.8000001E-04    1.0000002E-24
  4.1499999E-04    9.9999943E-25
  4.4999999E-04    1.0000016E-24
  4.8500000E-04    9.9999992E-25
  5.2000000E-04    9.9999755E-25
  5.5499998E-04    1.0000002E-24
  5.9000001E-04    1.0000015E-24
  6.2499999E-04    9.9999923E-25
  6.6000002E-04    1.0000001E-24
  6.9500000E-04    1.0000023E-24
  7.3000003E-04    1.0000014E-24
  7.6500000E-04    9.9999854E-25
  7.9999998E-04    9.9999765E-25
  8.3500001E-04    1.0000002E-24
  8.6999999E-04    1.0000023E-24
  9.0500002E-04    9.9999963E-25
  9.4000000E-04    9.9999824E-25
  9.7499997E-04    1.0000024E-24
  1.0100000E-03    1.0000021E-24
  1.0450000E-03    9.9999746E-25
  1.0800000E-03    9.9999874E-25
  1.1150000E-03    1.0000020E-24
  1.1500000E-03    9.9999982E-25
  1.1849999E-03    9.9999943E-25
  1.2200000E-03    1.0000011E-24
  1.2550000E-03    9.9999992E-25
  1.2900000E-03    1.0000003E-24
  1.3250000E-03    1.0000009E-24
  1.3600000E-03    9.9999795E-25
  1.3950000E-03    9.9999982E-25
  1.4299999E-03    1.0000040E-24
  1.4650000E-03    9.9999913E-25
  1.5000000E-03    9.9999617E-25
  1.5350000E-03    1.0000024E-24
  1.5700000E-03    1.0000027E-24
  1.6050000E-03    9.9999706E-25
  1.6400000E-03    9.9999923E-25
  1.6749999E-03    1.0000020E-24
  1.7100000E-03    9.9999824E-25
  1.7450000E-03    9.9999992E-25
  1.7800000E-03    1.0000042E-24
  1.8150000E-03    9.9999953E-25
  1.8500000E-03    9.9999667E-25
  1.8850000E-03    1.0000016E-24
  1.9200000E-03    1.0000021E-24
  1.9550000E-03    9.9999834E-25
  1.9900000E-03    9.9999972E-25
  2.0250001E-03    1.0000011E-24
  2.0600001E-03    1.0000001E-24
  2.0949999E-03    1.0000013E-24
  2.1299999E-03    9.9999972E-25
  2.1650000E-03    9.9999785E-25
  2.2000000E-03    1.0000021E-24
  2.2350000E-03    1.0000034E-24
  2.2700001E-03    9.9999785E-25
  2.3050001E-03    9.9999834E-25
  2.3399999E-03    1.0000018E-24
  2.3749999E-03    9.9999834E-25
  2.4100000E-03    9.9999805E-25
  2.4450000E-03    1.0000035E-24
  2.4800000E-03    1.0000015E-24
  2.5150001E-03    9.9999755E-25
  2.5500001E-03    1.0000003E-24
  2.5849999E-03    1.0000004E-24
  2.6199999E-03    9.9999726E-25
  2.6550000E-03    1.0000013E-24
  2.6900000E-03    1.0000044E-24
  2.7250000E-03    9.9999913E-25
  2.7600001E-03    9.9999795E-25
  2.7950001E-03    1.0000023E-24
  2.8299999E-03    1.0000006E-24
  2.8649999E-03    9.9999884E-25
  2.9000000E-03    1.0000004E-24
  2.9350000E-03    9.9999943E-25
  2.9700000E-03    9.9999972E-25
  3.0050001E-03    1.0000029E-24
  3.0400001E-03    1.0000011E-24
  3.0749999E-03    9.9999746E-25
  3.1099999E-03    9.9999864E-25
  3.1450000E-03    9.9999933E-25
  3.1800000E-03    9.9999992E-25
  3.2150000E-03    1.0000024E-24
  3.2500001E-03    1.0000005E-24
  3.2850001E-03    9.9999844E-25
  3.3199999E-03    1.0000012E-24
  3.3549999E-03    1.0000011E-24
  3.3900000E-03    9.9999854E-25
  3.4250000E-03    1.0000007E-24
  3.4600000E-03    1.0000021E-24
  3.4950001E-03    9.9999913E-25
  3.5300001E-03    9.9999834E-25
  3.5649999E-03    1.0000000E-24
  3.5999999E-03    1.0000010E-24
  3.6350000E-03    1.0000018E-24
  3.6700000E-03    1.0000003E-24
  3.7050000E-03    9.9999824E-25
  3.7400001E-03    9.9999992E-25
  3.7750001E-03    1.0000021E-24
  3.8099999E-03    9.9999992E-25
  3.8449999E-03    9.9999903E-25
  3.8800000E-03    1.0000014E-24
  3.9149998E-03    1.0000000E-24
  3.9499998E-03    9.9999716E-25
  3.9849998E-03    9.9999943E-25
  4.0199999E-03    1.0000013E-24
  4.0549999E-03    1.0000001E-24
  4.0899999E-03    1.0000012E-24
  4.1250000E-03    1.0000020E-24
  4.1600000E-03    9.9999943E-25
  4.1950000E-03    9.9999943E-25
  4.2300001E-03    1.0000006E-24
  4.2650001E-03    9.9999844E-25
  4.3000001E-03    9.9999953E-25
  4.3350002E-03    1.0000038E-24
  4.3700002E-03    1.0000012E-24
  4.4049998E-03    9.9999775E-25
  4.4399998E-03    1.0000004E-24
  4.4749998E-03    1.0000003E-24
  4.5099999E-03    9.9999844E-25
  4.5449999E-03    1.0000001E-24
  4.5799999E-03    1.0000006E-24
  4.6150000E-03    9.9999933E-25
  4.6500000E-03    1.0000011E-24
  4.6850001E-03    1.0000024E-24
  4.7200001E-03    1.0000001E-24
  4.7550001E-03    9.9999765E-25
  4.7900002E-03    9.9999686E-25
  4.8250002E-03    1.0000003E-24
  4.8600002E-03    1.0000041E-24
  4.8949998E-03    1.0000011E-24
  4.9299998E-03    9.9999805E-25
  4.9649999E-03    1.0000008E-24
  4.9999999E-03    1.0000024E-24
  5.0349999E-03    1.0000001E-24
  5.0700000E-03    9.9999884E-25
  5.1050000E-03    1.0000008E-24
  5.1400000E-03    1.0000024E-24
  5.1750001E-03    9.9999893E-25
  5.2100001E-03    9.9999617E-25
  5.2450001E-03    1.0000006E-24
  5.2800002E-03    1.0000041E-24
  5.3150002E-03    9.9999844E-25
  5.3500002E-03    9.9999706E-25
  5.3849998E-03    1.0000028E-24
  5.4199998E-03    1.0000019E-24
  5.4549999E-03    9.9999795E-25
  5.4899999E-03    1.0000008E-24
  5.5249999E-03    1.0000014E-24
  5.5600000E-03    9.9999726E-25
  5.5950000E-03    9.9999903E-25
  5.6300000E-03    1.0000026E-24
  5.6650001E-03    1.0000002E-24
  5.7000001E-03    9.9999913E-25
  5.7350001E-03    1.0000010E-24
  5.7700002E-03    1.0000001E-24
  5.8050002E-03    9.9999884E-25
  5.8400002E-03    1.0000011E-24
  5.8749998E-03    1.0000013E-24
  5.9099998E-03    9.9999923E-25
  5.9449999E-03    9.9999972E-25
  5.9799999E-03    1.0000005E-24
  6.0149999E-03    9.9999893E-25
  6.0500000E-03    1.0000008E-24
  6.0850000E-03    1.0000030E-24
  6.1200000E-03    9.9999726E-25
  6.1550001E-03    9.9999667E-25
  6.1900001E-03    1.0000047E-24
  6.2250001E-03    1.0000034E-24
  6.2600002E-03    9.9999667E-25
  6.2950002E-03    9.9999982E-25
  6.3299998E-03    1.0000014E-24
  6.3649998E-03    9.9999677E-25
  6.3999998E-03    9.9999913E-25
  6.4349999E-03    1.0000025E-24
  6.4699999E-03    9.9999972E-25
  6.5049999E-03    1.0000003E-24
  6.5400000E-03    1.0000035E-24
  6.5750000E-03    1.0000001E-24
  6.6100000E-03    9.9999765E-25
  6.6450001E-03    1.0000011E-24
  6.6800001E-03    1.0000021E-24
  6.7150001E-03    9.9999884E-25
  6.7500002E-03    9.9999982E-25
  6.7850002E-03    1.0000022E-24
  6.8199998E-03    1.0000003E-24
  6.8549998E-03    9.9999923E-25
  6.8899998E-03    1.0000005E-24
  6.9249999E-03    9.9999815E-25
  6.9599999E-03    9.9999637E-25
  6.9949999E-03    1.0000017E-24
  7.0300000E-03    1.0000030E-24
  7.0650000E-03    9.9999834E-25
  7.1000000E-03    1.0000004E-24
  7.1350001E-03    1.0000045E-24
  7.1700001E-03    9.9999903E-25
  7.2050001E-03    9.9999538E-25
  7.2400002E-03    9.9999972E-25
  7.2750002E-03    1.0000020E-24
  7.3099998E-03    1.0000024E-24
  7.3449998E-03    1.0000032E-24
  7.3799998E-03    9.9999963E-25
  7.4149999E-03    9.9999647E-25
  7.4499999E-03    9.9999864E-25
  7.4850000E-03    9.9999992E-25
  7.5200000E-03    1.0000002E-24
  7.5550000E-03    1.0000011E-24
  7.5900001E-03    1.0000012E-24
  7.6250001E-03    1.0000010E-24
  7.6600001E-03    1.0000003E-24
  7.6950002E-03    9.9999933E-25
  7.7300002E-03    9.9999972E-25
  7.7650002E-03    1.0000004E-24
  7.7999998E-03    1.0000000E-24
  7.8349998E-03    1.0000004E-24
  7.8699999E-03    9.9999963E-25
  7.9049999E-03    9.9999795E-25
  7.9399999E-03    1.0000015E-24
  7.9750000E-03    1.0000035E-24
  8.0100000E-03    9.9999706E-25
  8.0450000E-03    9.9999627E-25
  8.0800001E-03    1.0000034E-24
  8.1150001E-03    1.0000019E-24
  8.1500001E-03    9.9999696E-25
  8.1850002E-03    1.0000012E-24
  8.2200002E-03    1.0000049E-24
  8.2550002E-03    1.0000005E-24
  8.2900003E-03    9.9999854E-25
  8.3250003E-03    1.0000002E-24
  8.3600003E-03    1.0000001E-24
  8.3950004E-03    9.9999953E-25
  8.4300004E-03    1.0000005E-24
  8.4650004E-03    9.9999992E-25
  8.5000005E-03    9.9999805E-25
  8.5349996E-03    9.9999844E-25
  8.5699996E-03    1.0000008E-24
  8.6049996E-03    1.0000019E-24
  8.6399997E-03    1.0000010E-24
  8.6749997E-03    9.9999972E-25
  8.7099997E-03    9.9999923E-25
  8.7449998E-03    1.0000009E-24
  8.7799998E-03    1.0000015E-24
  8.8149998E-03    9.9999893E-25
  8.8499999E-03    9.9999923E-25
  8.8849999E-03    1.0000029E-24
  8.9199999E-03    1.0000004E-24
  8.9550000E-03    9.9999667E-25
  8.9900000E-03    1.0000007E-24
  9.0250000E-03    1.0000037E-24
  9.0600001E-03    1.0000003E-24
  9.0950001E-03    9.9999913E-25
  9.1300001E-03    9.9999874E-25
  9.1650002E-03    9.9999775E-25
  9.2000002E-03    9.9999963E-25
  9.2350002E-03    1.0000006E-24
  9.2700003E-03    1.0000002E-24
  9.3050003E-03    1.0000020E-24
  9.3400003E-03    1.0000011E-24
  9.3750004E-03    9.9999864E-25
  9.4100004E-03    1.0000002E-24
  9.4450004E-03    1.0000012E-24
  9.4799995E-03    9.9999903E-25
  9.5149996E-03    9.9999953E-25
  9.5499996E-03    1.0000014E-24
  9.5849996E-03    1.0000013E-24
  9.6199997E-03    1.0000001E-24
  9.6549997E-03    9.9999864E-25
  9.6899997E-03    1.0000010E-24
  9.7249998E-03    1.0000031E-24
  9.7599998E-03    9.9999795E-25
  9.7949998E-03    9.9999647E-25
  9.8299999E-03    1.0000036E-24
  9.8649999E-03    1.0000040E-24
  9.8999999E-03    9.9999686E-25
  9.9350000E-03    9.9999834E-25
  9.9700000E-03    1.0000024E-24
  1.0005000E-02    9.9999854E-25
  1.0040000E-02    9.9999627E-25
  1.0075000E-02    1.0000008E-24
  1.0110000E-02    1.0000036E-24
  1.0145000E-02    1.0000007E-24
  1.0180000E-02    9.9999726E-25
  1.0215000E-02    9.9999874E-25
  1.0250000E-02    1.0000006E-24
  1.0285000E-02    9.9999913E-25
  1.0320000E-02    1.0000008E-24
  1.0355000E-02    1.0000049E-24
  1.0390000E-02    1.0000024E-24
  1.0425000E-02    9.9999538E-25
  1.0460000E-02    9.9999538E-25
  1.0495000E-02    1.0000019E-24
  1.0530000E-02    1.0000033E-24
  1.0565000E-02    9.9999903E-25
  1.0600000E-02    9.9999903E-25
  1.0635000E-02    1.0000026E-24
  1.0670000E-02    1.0000020E-24
  1.0705000E-02    1.0000011E-24
  1.0740000E-02    9.9999992E-25
  1.0775000E-02    9.9999627E-25
  1.0810000E-02    9.9999253E-25
  1.0845000E-02    1.0000025E-24
  1.0880000E-02    1.0000081E-24
  1.0915000E-02    9.9999519E-25
  1.0950000E-02    9.9998838E-25
  1.0985000E-02    9.9999617E-25
  1.1020000E-02    1.0000162E-24
  1.1055000E-02    9.9999598E-25
  1.1090000E-02    9.9998976E-25
  1.1125000E-02    1.0000173E-24
  1.1160000E-02    1.0000120E-24
  1.1195000E-02    9.9998197E-25
  1.1230000E-02    9.9996383E-25
  1.1265000E-02    9.9999805E-25
  1.1300000E-02    1.0000255E-24
  1.1335000E-02    1.0000597E-24
  1.1370000E-02    1.0000533E-24
  1.1405000E-02    9.9988317E-25
  1.1440000E-02    9.9993819E-25
  1.1475000E-02    1.0000970E-24
  1.1510000E-02    9.9999105E-25
  1.1545000E-02    9.9980182E-25
  1.1580000E-02    9.9998986E-25
  1.1615000E-02    1.0000814E-24
  1.1650000E-02    1.0000928E-24
  1.1685000E-02    9.9964592E-25
  1.1720000E-02    9.9958311E-25
  1.1755000E-02    1.0008341E-24
  1.1790000E-02    1.0002196E-24
  1.1825000E-02    9.9882521E-25
  1.1860000E-02    9.9860916E-25
  1.1895000E-02    1.0003728E-24
  1.1930000E-02    1.0010165E-24
  1.1965000E-02    9.9876713E-25
  1.2000000E-02    9.9923532E-25
  1.2035000E-02    9.9988997E-25
  1.2070000E-02    1.0020502E-24
  1.2105000E-02    1.0018710E-24
  1.2140000E-02    9.9605463E-25
  1.2175000E-02    9.9726070E-25
  1.2210000E-02    1.0042299E-24
  1.2245000E-02    1.0040903E-24
  1.2280000E-02    9.9794878E-25
  1.2315000E-02    9.9787404E-25
  1.2350000E-02    1.0112340E-24
  1.2385000E-02    1.0005004E-24
  1.2420000E-02    9.9185247E-25
  1.2455000E-02    1.0000150E-24
  1.2490000E-02    9.9188146E-25
  1.2525000E-02    1.0023285E-24
  1.2560000E-02    1.0391571E-24
  1.2595000E-02    1.0137333E-24
  1.2630000E-02    9.5881586E-25
  1.2665000E-02    1.0247521E-24
  1.2700000E-02    1.1220147E-24
  1.2735000E-02    9.7810006E-25
  1.2770000E-02    8.2936881E-25
  1.2805000E-02    1.0199256E-24
  1.2840000E-02    1.1263463E-24
  1.2875000E-02    1.0371915E-24
  1.2910000E-02    8.1161215E-25
  1.2945000E-02    9.7093621E-25
  1.2980000E-02    1.1535111E-24
  1.3015000E-02    1.0950794E-24
  1.3050000E-02    1.1105875E-24
  1.3085000E-02    4.2619201E-25
  1.3120000E-02    7.1327718E-25
  1.3155000E-02    1.1854977E-24
  1.3190000E-02    9.6254836E-25
  1.3225000E-02    6.6767821E-25
  1.3260000E-02    8.6074092E-25
  1.3295000E-02    1.9504034E-24
  1.3330000E-02    2.2962792E-24
  1.3365000E-02    6.3682616E-25
  1.3400000E-02   -6.3648079E-25
  1.3435000E-02    2.6719957E-24
  1.3470000E-02    4.3252423E-24
  1.3505000E-02   -5.6739476E-25
  1.3540000E-02   -1.7041478E-24
  1.3575000E-02    2.5678695E-24
  1.3610000E-02    2.6342651E-24
  1.3645000E-02    6.9346414E-26
  1.3680000E-02    9.5593652E-25
  1.3715000E-02   -4.8508445E-24
  1.3750000E-02   -1.7076468E-24
  1.3785000E-02    9.6591214E-24
  1.3820000E-02    1.6357710E-25
  1.3855000E-02   -5.4606395E-24
  1.3890000E-02    2.0620942E-24
  1.3925000E-02    1.3282501E-23
  1.3960000E-02    1.7023871E-24
  1.3995000E-02   -2.6850437E-23
  1.4030000E-02   -1.2071605E-23
  1.4065000E-02    3.0043048E-23
  1.4100000E-02    1.2804179E-23
  1.4135000E-02   -3.5491000E-23
  1.4170000E-02   -3.7698451E-23
  1.4205000E-02    1.9513543E-23
  1.4240000E-02    7.5248009E-23
  1.4275000E-02   -7.2891833E-23
  1.4310000E-02   -1.3042799E-22
  1.4345000E-02    1.2714907E-22
  1.4380000E-02    1.2293885E-22
  1.4415000E-02   -5.6141874E-23
  1.4450000E-02    1.0888624E-23
  1.4485000E-02   -5.8947341E-23
  1.4520000E-02   -3.7504514E-23
  1.4555000E-02    1.5727052E-22
  1.4590000E-02   -3.8675503E-23
  1.4625000E-02   -1.6850025E-22
  1.4660000E-02   -7.7183047E-23
  1.4695000E-02    2.8532443E-22
  1.4730000E-02   -7.8549903E-25
  1.4765000E-02   -6.4507340E-22
  1.4800000E-02   -2.6688101E-22
  1.4835000E-02    5.9407880E-22
  1.4870000E-02    7.4228848E-22
  1.4905000E-02   -4.6196770E-22
  1.4940000E-02   -4.7789531E-23
  1.4975000E-02    5.9184470E-22
  1.5010000E-02    7.1022851E-22
  1.5045000E-02    6.4011279E-22
  1.5080000E-02   -1.0480505E-21
  1.5115000E-02   -8.7430032E-22
  1.5150000E-02    1.5277921E-21
  1.5185000E-02    3.6483923E-22
  1.5220000E-02   -1.9583133E-21
  1.5255000E-02   -1.5868017E-21
  1.5290000E-02    1.2596708E-21
  1.5325000E-02    3.3303782E-21
  1.5360000E-02    1.0004608E-21
  1.5395000E-02   -3.8838666E-21
  1.5430000E-02   -3.0710221E-21
  1.5465000E-02    1.6774122E-21
  1.5500000E-02    5.3848872E-21
  1.5535000E-02    3.0986529E-21
  1.5570000E-02   -4.1972970E-21
  1.5605000E-02    5.6853551E-22
  1.5640000E-02    7.9095648E-21
  1.5675001E-02   -3.7237987E-21
  1.5710000E-02   -1.3802673E-20
  1.5745001E-02    1.2965082E-24
  1.5780000E-02    7.9204935E-21
  1.5814999E-02   -1.4234168E-21
  1.5850000E-02   -3.1517692E-21
  1.5884999E-02    2.9030239E-21
  1.5920000E-02   -4.0167576E-21
  1.5954999E-02    1.0093188E-20
  1.5990000E-02    2.3300988E-20
  1.6024999E-02   -1.1035593E-20
  1.6060000E-02   -2.6412565E-20
  1.6094999E-02    1.2479713E-20
  1.6130000E-02    3.1223978E-20
  1.6164999E-02    6.9416811E-21
  1.6200000E-02   -1.6575473E-20
  1.6235000E-02   -7.9571697E-21
  1.6270000E-02    2.0986700E-20
  1.6305000E-02    1.5596589E-20
  1.6340001E-02    9.6457959E-21
  1.6375000E-02    1.7317684E-20
  1.6410001E-02   -2.7821066E-20
  1.6445000E-02    5.4085502E-20
  1.6480001E-02    8.7437708E-20
  1.6515000E-02   -5.1694084E-20
  1.6550001E-02   -8.7960486E-20
  1.6585000E-02    3.3453145E-20
  1.6620001E-02   -7.1391414E-21
  1.6655000E-02   -6.5395482E-21
  1.6690001E-02    2.2066747E-20
  1.6725000E-02   -2.0897146E-20
  1.6759999E-02    4.1958653E-20
  1.6795000E-02    1.6397107E-19
  1.6829999E-02    1.6496172E-20
  1.6865000E-02   -2.3476619E-19
  1.6899999E-02   -1.1426178E-19
  1.6935000E-02    3.8572657E-19
  1.6969999E-02    3.5393389E-19
  1.7005000E-02   -1.7003205E-19
  1.7039999E-02   -4.4231317E-19
  1.7075000E-02   -2.7573236E-19
  1.7109999E-02    6.1872122E-19
  1.7145000E-02    6.8564412E-19
  1.7180000E-02   -7.2261759E-19
  1.7215000E-02   -8.8352950E-19
  1.7250000E-02    7.1662973E-19
  1.7285001E-02    9.3490931E-19
  1.7320000E-02   -2.9032610E-19
  1.7355001E-02   -8.2042524E-19
  1.7390000E-02    1.8225448E-19
  1.7425001E-02    1.9408898E-18
  1.7460000E-02    6.3940973E-19
  1.7495001E-02   -3.4064480E-18
  1.7530000E-02   -2.1081597E-18
  1.7565001E-02    2.7408111E-18
  1.7600000E-02    3.7370473E-18
  1.7635001E-02   -7.9634311E-19
  1.7670000E-02   -4.8906454E-18
  1.7704999E-02   -5.5101613E-19
  1.7740000E-02    6.3281008E-18
  1.7774999E-02    3.5000965E-18
  1.7810000E-02   -5.7229446E-18
  1.7844999E-02   -7.1421338E-18
  1.7880000E-02    6.0317526E-18
  1.7914999E-02    1.2199983E-17
  1.7950000E-02   -2.7712149E-18
  1.7984999E-02   -1.7543866E-17
  1.8020000E-02   -3.1590642E-18
  1.8054999E-02    1.9703199E-17
  1.8090000E-02    1.0579781E-17
  1.8124999E-02   -1.7250195E-17
  1.8160000E-02   -1.9738391E-17
  1.8195000E-02    1.5729514E-17
  1.8230001E-02    2.8977940E-17
  1.8265000E-02   -7.6186627E-18
  1.8300001E-02   -3.7367891E-17
  1.8335000E-02   -7.2783771E-18
  1.8370001E-02    4.2627588E-17
  1.8405000E-02    2.5602100E-17
  1.8440001E-02   -4.2404934E-17
  1.8475000E-02   -5.1044022E-17
  1.8510001E-02    3.2885594E-17
  1.8545000E-02    7.6720671E-17
  1.8580001E-02   -1.5294105E-17
  1.8615000E-02   -1.0052512E-16
  1.8650001E-02   -2.4406179E-17
  1.8685000E-02    1.0754937E-16
  1.8719999E-02    6.6935627E-17
  1.8755000E-02   -9.5827279E-17
  1.8789999E-02   -1.1819580E-16
  1.8825000E-02    6.7481196E-17
  1.8859999E-02    1.6204909E-16
  1.8895000E-02   -1.2008694E-17
  1.8929999E-02   -2.0386050E-16
  1.8965000E-02   -6.3463467E-17
  1.8999999E-02    2.1809621E-16
  1.9035000E-02    1.4518959E-16
  1.9069999E-02   -1.8405498E-16
  1.9105000E-02   -2.4622268E-16
  1.9140000E-02    1.0869964E-16
  1.9175000E-02    3.5797674E-16
  1.9210000E-02    7.4429984E-18
  1.9245001E-02   -4.3957582E-16
  1.9280000E-02   -1.6031647E-16
  1.9315001E-02    4.4919359E-16
  1.9350000E-02    3.4866039E-16
  1.9385001E-02   -3.6979418E-16
  1.9420000E-02   -5.2394499E-16
  1.9455001E-02    1.9874184E-16
  1.9490000E-02    6.5807186E-16
  1.9525001E-02    5.2450649E-17
  1.9560000E-02   -7.4726141E-16
  1.9595001E-02   -3.8844574E-16
  1.9630000E-02    6.9501663E-16
  1.9664999E-02    7.2647575E-16
  1.9700000E-02   -5.1702166E-16
  1.9734999E-02   -9.7710121E-16
  1.9770000E-02    1.9731569E-16
  1.9804999E-02    1.1626323E-15
  1.9840000E-02    2.5004627E-16
  1.9874999E-02   -1.1625892E-15
  1.9910000E-02   -7.1123393E-16
  1.9944999E-02    1.0343186E-15
  1.9980000E-02    1.2371371E-15
  2.0014999E-02   -6.4307546E-16
  2.0050000E-02   -1.6621193E-15
  2.0085000E-02   -7.6796681E-18
  2.0120000E-02    1.8527425E-15
  2.0155000E-02    7.3199772E-16
  2.0190001E-02   -1.7733779E-15
  2.0225000E-02   -1.5558086E-15
  2.0260001E-02    1.2765362E-15
  2.0295000E-02    2.2348558E-15
  2.0330001E-02   -4.2442513E-16
  2.0365000E-02   -2.6533949E-15
  2.0400001E-02   -7.4886019E-16
  2.0435000E-02    2.5988466E-15
  2.0470001E-02    2.0073931E-15
  2.0505000E-02   -1.9516094E-15
  2.0540001E-02   -3.1273043E-15
  2.0575000E-02    6.5409070E-16
  2.0609999E-02    3.7074200E-15
  2.0645000E-02    9.0300033E-16
  2.0679999E-02   -3.7960561E-15
  2.0715000E-02   -2.8897543E-15
  2.0749999E-02    2.8969761E-15
  2.0785000E-02    4.6834476E-15
  2.0819999E-02   -1.0904607E-15
  2.0855000E-02   -6.0655453E-15
  2.0889999E-02   -1.7183229E-15
  2.0925000E-02    6.3262502E-15
  2.0959999E-02    5.0992413E-15
  2.0995000E-02   -5.0960763E-15
  2.1029999E-02   -8.3131058E-15
  2.1065000E-02    2.2729183E-15
  2.1100000E-02    1.0876282E-14
  2.1135001E-02    2.1033910E-15
  2.1170000E-02   -1.2018961E-14
  2.1205001E-02   -7.8168884E-15
  2.1240000E-02    1.1054159E-14
  2.1275001E-02    1.4233381E-14
  2.1310000E-02   -7.3276625E-15
  2.1345001E-02   -2.0429384E-14
  2.1380000E-02    1.9205556E-16
  2.1415001E-02    2.4713679E-14
  2.1450000E-02    9.9890070E-15
  2.1485001E-02   -2.5715764E-14
  2.1520000E-02   -2.2612466E-14
  2.1555001E-02    2.1719068E-14
  2.1590000E-02    3.5945422E-14
  2.1624999E-02   -1.1746390E-14
  2.1660000E-02   -4.7721684E-14
  2.1694999E-02   -4.6004257E-15
  2.1730000E-02    5.5438547E-14
  2.1764999E-02    2.7095861E-14
  2.1800000E-02   -5.5887617E-14
  2.1834999E-02   -5.4092005E-14
  2.1870000E-02    4.5988465E-14
  2.1904999E-02    8.2404739E-14
  2.1940000E-02   -2.3233804E-14
  2.1974999E-02   -1.0722540E-13
  2.2010000E-02   -1.3546480E-14
  2.2045000E-02    1.2245509E-13
  2.2080000E-02    6.3210715E-14
  2.2115000E-02   -1.2138031E-13
  2.2150001E-02   -1.2188030E-13
  2.2185000E-02    9.7189882E-14
  2.2220001E-02    1.8195680E-13
  2.2255000E-02   -4.5179826E-14
  2.2290001E-02   -2.3286535E-13
  2.2325000E-02   -3.6321020E-14
  2.2360001E-02    2.6120870E-13
  2.2395000E-02    1.4362452E-13
  2.2430001E-02   -2.5261011E-13
  2.2465000E-02   -2.6657707E-13
  2.2500001E-02    1.9423600E-13
  2.2535000E-02    3.8796475E-13
  2.2569999E-02   -7.7663048E-14
  2.2605000E-02   -4.8423602E-13
  2.2639999E-02   -9.6920959E-14
  2.2675000E-02    5.2740169E-13
  2.2709999E-02    3.1758805E-13
  2.2745000E-02   -4.8977304E-13
  2.2779999E-02   -5.5902597E-13
  2.2815000E-02    3.4945405E-13
  2.2849999E-02    7.8263595E-13
  2.2885000E-02   -9.7140347E-14
  2.2919999E-02   -9.3939993E-13
  2.2955000E-02   -2.5690032E-13
  2.2990000E-02    9.7724064E-13
  2.3025000E-02    6.7908407E-13
  2.3060000E-02   -8.5004904E-13
  2.3095001E-02   -1.1113517E-12
  2.3130000E-02    5.2934344E-13
  2.3165001E-02    1.4747457E-12
  2.3200000E-02   -1.6670491E-14
  2.3235001E-02   -1.6802585E-12
  2.3270000E-02   -6.4911564E-13
  2.3305001E-02    1.6424284E-12
  2.3340000E-02    1.3863481E-12
  2.3375001E-02   -1.3001633E-12
  2.3410000E-02   -2.0773244E-12
  2.3445001E-02    6.3417853E-13
  2.3480000E-02    2.5806336E-12
  2.3514999E-02    3.1584858E-13
  2.3550000E-02   -2.7555068E-12
  2.3584999E-02   -1.4454780E-12
  2.3620000E-02    2.4896140E-12
  2.3654999E-02    2.5904513E-12
  2.3690000E-02   -1.7284482E-12
  2.3724999E-02   -3.5449217E-12
  2.3760000E-02    4.9957786E-13
  2.3794999E-02    4.0934495E-12
  2.3830000E-02    1.0736494E-12
  2.3864999E-02   -4.0518582E-12
  2.3900000E-02   -2.7769462E-12
  2.3934999E-02    3.3112658E-12
  2.3970000E-02    4.3301864E-12
  2.4005000E-02   -1.8729209E-12
  2.4040001E-02   -5.4296932E-12
  2.4075000E-02   -1.3257250E-13
  2.4110001E-02    5.8019353E-12
  2.4145000E-02    2.4467347E-12
  2.4180001E-02   -5.2632291E-12
  2.4215000E-02   -4.7136982E-12
  2.4250001E-02    3.7682487E-12
  2.4285000E-02    6.5336885E-12
  2.4320001E-02   -1.4386679E-12
  2.4355000E-02   -7.5330766E-12
  2.4390001E-02   -1.4379435E-12
  2.4425000E-02    7.4379695E-12
  2.4460001E-02    4.4423705E-12
  2.4495000E-02   -6.1360235E-12
  2.4529999E-02   -7.0860535E-12
  2.4565000E-02    3.7149246E-12
  2.4599999E-02    8.8947539E-12
  2.4635000E-02   -4.6430698E-13
  2.4669999E-02   -9.4955085E-12
  2.4705000E-02   -3.1601759E-12
  2.4739999E-02    8.6904694E-12
  2.4775000E-02    6.6057823E-12
  2.4809999E-02   -6.5031817E-12
  2.4845000E-02   -9.3135499E-12
  2.4879999E-02    3.1864101E-12
  2.4915000E-02    1.0814388E-11
  2.4950000E-02    8.1154506E-13
  2.4985000E-02   -1.0811127E-11
  2.5020000E-02   -4.9158329E-12
  2.5055001E-02    9.2316979E-12
  2.5090000E-02    8.5154869E-12
  2.5125001E-02   -6.2450626E-12
  2.5160000E-02   -1.1061177E-11
  2.5195001E-02    2.2350565E-12
  2.5230000E-02    1.2149135E-11
  2.5265001E-02    2.2577194E-12
  2.5300000E-02   -1.1580991E-11
  2.5335001E-02   -6.6161976E-12
  2.5370000E-02    9.3899758E-12
  2.5405001E-02    1.0234891E-11
  2.5440000E-02   -5.8340416E-12
  2.5474999E-02   -1.2602467E-11
  2.5510000E-02    1.3587594E-12
  2.5544999E-02    1.3367622E-11
  2.5580000E-02    3.4605084E-12
  2.5614999E-02   -1.2384921E-11
  2.5650000E-02   -7.9913099E-12
  2.5684999E-02    9.7350019E-12
  2.5720000E-02    1.1622728E-11
  2.5754999E-02   -5.7193764E-12
  2.5790000E-02   -1.3842074E-11
  2.5824999E-02    8.3205150E-13
  2.5860000E-02    1.4307225E-11
  2.5895000E-02    4.2962812E-12
  2.5930000E-02   -1.2902391E-11
  2.5965000E-02   -8.9774915E-12
  2.6000001E-02    9.7685167E-12
  2.6035000E-02    1.2562154E-11
  2.6070001E-02   -5.2979886E-12
  2.6105000E-02   -1.4540309E-11
  2.6140001E-02    8.7697197E-14
  2.6175000E-02    1.4628875E-11
  2.6210001E-02    5.1486970E-12
  2.6245000E-02   -1.2825749E-11
  2.6280001E-02   -9.6973618E-12
  2.6315000E-02    9.4126625E-12
  2.6350001E-02    1.2966294E-11
  2.6385000E-02   -4.9008731E-12
  2.6419999E-02   -1.4582748E-11
  2.6455000E-02   -6.9798998E-14
  2.6489999E-02    1.4442264E-11
  2.6525000E-02    4.8551454E-12
  2.6559999E-02   -1.2694636E-11
  2.6595000E-02   -8.9178500E-12
  2.6629999E-02    9.6764732E-12
  2.6665000E-02    1.1900628E-11
  2.6699999E-02   -5.8080615E-12
  2.6735000E-02   -1.3636372E-11
  2.6769999E-02    1.4956478E-12
  2.6805000E-02    1.4103996E-11
  2.6839999E-02    2.9301713E-12
  2.6875000E-02   -1.3352612E-11
  2.6910000E-02   -7.2207999E-12
  2.6945001E-02    1.1429368E-11
  2.6980000E-02    1.1162175E-11