 -4.8000002E-03    1.0000000E-24
 -4.7650002E-03    1.0000002E-24
 -4.7300002E-03    1.0000001E-24
 -4.6950001E-03    1.0000000E-24
 -4.6600001E-03    1.0000002E-24
 -4.6250001E-03    1.0000002E-24
 -4.5900000E-03    1.0000001E-24
 -4.5550000E-03    1.0000001E-24
 -4.5200000E-03    9.9999982E-25
 -4.4849999E-03    1.0000001E-24
 -4.4499999E-03    1.0000002E-24
 -4.4149999E-03    9.9999992E-25
 -4.3799998E-03    9.9999982E-25
 -4.3449998E-03    1.0000003E-24
 -4.3100002E-03    1.0000005E-24
 -4.2750002E-03    1.0000000E-24
 -4.2400002E-03    9.9999992E-25
 -4.2050001E-03    1.0000002E-24
 -4.1700001E-03    1.0000002E-24
 -4.1350001E-03    9.9999972E-25
 -4.1000000E-03    9.9999982E-25
 -4.0650000E-03    1.0000002E-24
 -4.0300000E-03    1.0000001E-24
 -3.9949999E-03    9.9999972E-25
 -3.9599999E-03    1.0000000E-24
 -3.9249999E-03    1.0000002E-24
 -3.8900001E-03    9.9999992E-25
 -3.8550000E-03    1.0000000E-24
 -3.8200000E-03    1.0000004E-24
 -3.7849999E-03    1.0000002E-24
 -3.7499999E-03    9.9999972E-25
 -3.7150001E-03    1.0000002E-24
 -3.6800001E-03    1.0000007E-24
 -3.6450000E-03    9.9999982E-25
 -3.6100000E-03    9.9999963E-25
 -3.5750000E-03    1.0000002E-24
 -3.5399999E-03    1.0000000E-24
 -3.5049999E-03    9.9999972E-25
 -3.4700001E-03    1.0000007E-24
 -3.4350001E-03    1.0000005E-24
 -3.4000000E-03    9.9999953E-25
 -3.3650000E-03    9.9999982E-25
 -3.3300000E-03    1.0000004E-24
 -3.2949999E-03    9.9999982E-25
 -3.2599999E-03    9.9999982E-25
 -3.2250001E-03    1.0000005E-24
 -3.1900001E-03    1.0000007E-24
 -3.1550000E-03    9.9999953E-25
 -3.1200000E-03    9.9999953E-25
 -3.0850000E-03    1.0000007E-24
 -3.0499999E-03    1.0000010E-24
 -3.0149999E-03    9.9999933E-25
 -2.9800001E-03    9.9999923E-25
 -2.9450001E-03    1.0000012E-24
 -2.9100000E-03    1.0000006E-24
 -2.8750000E-03    9.9999884E-25
 -2.8400000E-03    1.0000002E-24
 -2.8049999E-03    1.0000013E-24
 -2.7699999E-03    9.9999963E-25
 -2.7350001E-03    9.9999933E-25
 -2.7000001E-03    1.0000008E-24
 -2.6650000E-03    1.0000011E-24
 -2.6300000E-03    9.9999972E-25
 -2.5950000E-03    9.9999972E-25
 -2.5599999E-03    1.0000002E-24
 -2.5249999E-03    9.9999943E-25
 -2.4900001E-03    9.9999943E-25
 -2.4550001E-03    1.0000003E-24
 -2.4200000E-03    1.0000008E-24
 -2.3850000E-03    1.0000005E-24
 -2.3500000E-03    9.9999982E-25
 -2.3149999E-03    9.9999953E-25
 -2.2799999E-03    9.9999963E-25
 -2.2450001E-03    9.9999972E-25
 -2.2100001E-03    1.0000003E-24
 -2.1750000E-03    1.0000008E-24
 -2.1400000E-03    1.0000002E-24
 -2.1050000E-03    1.0000002E-24
 -2.0699999E-03    1.0000010E-24
 -2.0349999E-03    1.0000003E-24
 -2.0000001E-03    9.9999943E-25
 -1.9650001E-03    1.0000001E-24
 -1.9300000E-03    1.0000002E-24
 -1.8950000E-03    9.9999923E-25
 -1.8600000E-03    9.9999943E-25
 -1.8250000E-03    1.0000007E-24
 -1.7900000E-03    1.0000006E-24
 -1.7550000E-03    9.9999953E-25
 -1.7199999E-03    9.9999992E-25
 -1.6850000E-03    1.0000004E-24
 -1.6500000E-03    1.0000000E-24
 -1.6150000E-03    9.9999953E-25
 -1.5800000E-03    9.9999953E-25
 -1.5450000E-03    1.0000001E-24
 -1.5100000E-03    1.0000006E-24
 -1.4750001E-03    1.0000005E-24
 -1.4400000E-03    1.0000000E-24
 -1.4050000E-03    1.0000007E-24
 -1.3700000E-03    1.0000007E-24
 -1.3350000E-03    9.9999923E-25
 -1.3000000E-03    9.9999844E-25
 -1.2650000E-03    9.9999963E-25
 -1.2300001E-03    1.0000005E-24
 -1.1950000E-03    1.0000003E-24
 -1.1600000E-03    1.0000002E-24
 -1.1250000E-03    1.0000006E-24
 -1.0900000E-03    1.0000010E-24
 -1.0550000E-03    1.0000000E-24
 -1.0200000E-03    9.9999874E-25
 -9.8500005E-04    9.9999953E-25
 -9.5000002E-04    1.0000007E-24
 -9.1499998E-04    1.0000004E-24
 -8.8000001E-04    9.9999953E-25
 -8.4499997E-04    9.9999933E-25
 -8.1000000E-04    1.0000002E-24
 -7.7500002E-04    1.0000013E-24
 -7.3999999E-04    1.0000003E-24
 -7.0500001E-04    9.9999903E-25
 -6.6999998E-04    1.0000005E-24
 -6.3500000E-04    1.0000005E-24
 -6.0000003E-04    9.9999943E-25
 -5.6499999E-04    1.0000002E-24
 -5.3000002E-04    1.0000010E-24
 -4.9499999E-04    1.0000005E-24
 -4.6000001E-04    1.0000005E-24
 -4.2500001E-04    9.9999963E-25
 -3.9000000E-04    9.9999854E-25
 -3.5500000E-04    1.0000004E-24
 -3.1999999E-04    1.0000013E-24
 -2.8499999E-04    9.9999953E-25
 -2.5000001E-04    9.9999982E-25
 -2.1499999E-04    1.0000010E-24
 -1.8000000E-04    9.9999933E-25
 -1.4500000E-04    9.9999834E-25
 -1.1000000E-04    1.0000008E-24
 -7.5000004E-05    1.0000014E-24
 -3.9999999E-05    9.9999963E-25
 -4.9999999E-06    1.0000001E-24
  2.9999999E-05    1.0000007E-24
  6.5000000E-05    9.9999933E-25
  9.9999997E-05    9.9999963E-25
  1.3499999E-04    1.0000012E-24
  1.7000000E-04    1.0000001E-24
  2.0500000E-04    9.9999923E-25
  2.3999999E-04    1.0000004E-24
  2.7500000E-04    1.0000000E-24
  3.1000000E-04    9.9999884E-25
  3.4500001E-04    1.0000006E-24
  3.8000001E-04    1.0000016E-24
  4.1499999E-04    9.9999943E-25
  4.4999999E-04    9.9999884E-25
  4.8500000E-04    1.0000012E-24
  5.2000000E-04    1.0000011E-24
  5.5499998E-04    9.9999884E-25
  5.9000001E-04    1.0000000E-24
  6.2499999E-04    1.0000022E-24
  6.6000002E-04    9.9999943E-25
  6.9500000E-04    9.9999815E-25
  7.3000003E-04    1.0000012E-24
  7.6500000E-04    1.0000008E-24
  7.9999998E-04    9.9999874E-25
  8.3500001E-04    1.0000004E-24
  8.6999999E-04    1.0000016E-24
  9.0500002E-04    9.9999933E-25
  9.4000000E-04    9.9999933E-25
  9.7499997E-04    1.0000009E-24
  1.0100000E-03    1.0000003E-24
  1.0450000E-03    9.9999943E-25
  1.0800000E-03    1.0000002E-24
  1.1150000E-03    1.0000003E-24
  1.1500000E-03    1.0000004E-24
  1.1849999E-03    1.0000008E-24
  1.2200000E-03    1.0000002E-24
  1.2550000E-03    9.9999972E-25
  1.2900000E-03    9.9999913E-25
  1.3250000E-03    9.9999972E-25
  1.3600000E-03    1.0000002E-24
  1.3950000E-03    9.9999923E-25
  1.4299999E-03    9.9999923E-25
  1.4650000E-03    1.0000013E-24
  1.5000000E-03    1.0000006E-24
  1.5350000E-03    9.9999884E-25
  1.5700000E-03    1.0000008E-24
  1.6050000E-03    1.0000009E-24
  1.6400000E-03    9.9999913E-25
  1.6749999E-03    1.0000012E-24
  1.7100000E-03    1.0000025E-24
  1.7450000E-03    9.9999854E-25
  1.7800000E-03    9.9999795E-25
  1.8150000E-03    1.0000005E-24
  1.8500000E-03    9.9999953E-25
  1.8850000E-03    9.9999943E-25
  1.9200000E-03    1.0000031E-24
  1.9550000E-03    1.0000014E-24
  1.9900000E-03    9.9999785E-25
  2.0250001E-03    9.9999992E-25
  2.0600001E-03    1.0000011E-24
  2.0949999E-03    9.9999844E-25
  2.1299999E-03    9.9999972E-25
  2.1650000E-03    1.0000029E-24
  2.2000000E-03    1.0000015E-24
  2.2350000E-03    9.9999963E-25
  2.2700001E-03    1.0000001E-24
  2.3050001E-03    9.9999943E-25
  2.3399999E-03    9.9999785E-25
  2.3749999E-03    9.9999933E-25
  2.4100000E-03    1.0000012E-24
  2.4450000E-03    1.0000001E-24
  2.4800000E-03    9.9999972E-25
  2.5150001E-03    1.0000016E-24
  2.5500001E-03    1.0000001E-24
  2.5849999E-03    9.9999706E-25
  2.6199999E-03    9.9999963E-25
  2.6550000E-03    1.0000021E-24
  2.6900000E-03    9.9999815E-25
  2.7250000E-03    9.9999874E-25
  2.7600001E-03    1.0000043E-24
  2.7950001E-03    1.0000018E-24
  2.8299999E-03    9.9999686E-25
  2.8649999E-03    1.0000004E-24
  2.9000000E-03    1.0000020E-24
  2.9350000E-03    9.9999755E-25
  2.9700000E-03    9.9999864E-25
  3.0050001E-03    1.0000032E-24
  3.0400001E-03    1.0000007E-24
  3.0749999E-03    9.9999824E-25
  3.1099999E-03    1.0000012E-24
  3.1450000E-03    1.0000006E-24
  3.1800000E-03    9.9999765E-25
  3.2150000E-03    1.0000000E-24
  3.2500001E-03    1.0000020E-24
  3.2850001E-03    9.9999953E-25
  3.3199999E-03    9.9999884E-25
  3.3549999E-03    1.0000005E-24
  3.3900000E-03    1.0000000E-24
  3.4250000E-03    9.9999903E-25
  3.4600000E-03    1.0000012E-24
  3.4950001E-03    1.0000022E-24
  3.5300001E-03    1.0000000E-24
  3.5649999E-03    9.9999874E-25
  3.5999999E-03    1.0000005E-24
  3.6350000E-03    1.0000003E-24
  3.6700000E-03    9.9999824E-25
  3.7050000E-03    9.9999953E-25
  3.7400001E-03    1.0000019E-24
  3.7750001E-03    1.0000004E-24
  3.8099999E-03    9.9999933E-25
  3.8449999E-03    1.0000004E-24
  3.8800000E-03    1.0000003E-24
  3.9149998E-03    9.9999903E-25
  3.9499998E-03    9.9999992E-25
  3.9849998E-03    1.0000007E-24
  4.0199999E-03    1.0000003E-24
  4.0549999E-03    1.0000011E-24
  4.0899999E-03    1.0000015E-24
  4.1250000E-03    9.9999933E-25
  4.1600000E-03    9.9999933E-25
  4.1950000E-03    1.0000014E-24
  4.2300001E-03    9.9999972E-25
  4.2650001E-03    9.9999765E-25
  4.3000001E-03    1.0000008E-24
  4.3350002E-03    1.0000016E-24
  4.3700002E-03    9.9999893E-25
  4.4049998E-03    1.0000000E-24
  4.4399998E-03    1.0000014E-24
  4.4749998E-03    9.9999943E-25
  4.5099999E-03    9.9999972E-25
  4.5449999E-03    1.0000008E-24
  4.5799999E-03    9.9999982E-25
  4.6150000E-03    1.0000005E-24
  4.6500000E-03    1.0000016E-24
  4.6850001E-03    1.0000003E-24
  4.7200001E-03    9.9999953E-25
  4.7550001E-03    9.9999903E-25
  4.7900002E-03    9.9999884E-25
  4.8250002E-03    1.0000001E-24
  4.8600002E-03    1.0000006E-24
  4.8949998E-03    1.0000003E-24
  4.9299998E-03    1.0000005E-24
  4.9649999E-03    9.9999923E-25
  4.9999999E-03    9.9999854E-25
  5.0349999E-03    1.0000012E-24
  5.0700000E-03    1.0000016E-24
  5.1050000E-03    9.9999953E-25
  5.1400000E-03    1.0000005E-24
  5.1750001E-03    1.0000005E-24
  5.2100001E-03    9.9999746E-25
  5.2450001E-03    9.9999943E-25
  5.2800002E-03    1.0000032E-24
  5.3150002E-03    1.0000003E-24
  5.3500002E-03    9.9999834E-25
  5.3849998E-03    1.0000012E-24
  5.4199998E-03    1.0000007E-24
  5.4549999E-03    9.9999815E-25
  5.4899999E-03    9.9999933E-25
  5.5249999E-03    1.0000009E-24
  5.5600000E-03    1.0000002E-24
  5.5950000E-03    9.9999953E-25
  5.6300000E-03    1.0000003E-24
  5.6650001E-03    1.0000010E-24
  5.7000001E-03    1.0000003E-24
  5.7350001E-03    9.9999923E-25
  5.7700002E-03    1.0000007E-24
  5.8050002E-03    1.0000022E-24
  5.8400002E-03    1.0000001E-24
  5.8749998E-03    9.9999834E-25
  5.9099998E-03    9.9999963E-25
  5.9449999E-03    1.0000000E-24
  5.9799999E-03    9.9999874E-25
  6.0149999E-03    1.0000005E-24
  6.0500000E-03    1.0000022E-24
  6.0850000E-03    9.9999933E-25
  6.1200000E-03    9.9999874E-25
  6.1550001E-03    1.0000019E-24
  6.1900001E-03    1.0000011E-24
  6.2250001E-03    9.9999815E-25
  6.2600002E-03    1.0000000E-24
  6.2950002E-03    1.0000020E-24
  6.3299998E-03    9.9999943E-25
  6.3649998E-03    9.9999854E-25
  6.3999998E-03    1.0000006E-24
  6.4349999E-03    1.0000014E-24
  6.4699999E-03    1.0000015E-24
  6.5049999E-03    1.0000008E-24
  6.5400000E-03    9.9999923E-25
  6.5750000E-03    9.9999972E-25
  6.6100000E-03    9.9999972E-25
  6.6450001E-03    9.9999854E-25
  6.6800001E-03    9.9999923E-25
  6.7150001E-03    1.0000008E-24
  6.7500002E-03    1.0000008E-24
  6.7850002E-03    1.0000007E-24
  6.8199998E-03    1.0000008E-24
  6.8549998E-03    9.9999972E-25
  6.8899998E-03    9.9999963E-25
  6.9249999E-03    9.9999992E-25
  6.9599999E-03    9.9999933E-25
  6.9949999E-03    9.9999933E-25
  7.0300000E-03    1.0000002E-24
  7.0650000E-03    1.0000016E-24
  7.1000000E-03    1.0000012E-24
  7.1350001E-03    9.9999893E-25
  7.1700001E-03    1.0000001E-24
  7.2050001E-03    1.0000026E-24
  7.2400002E-03    9.9999933E-25
  7.2750002E-03    9.9999726E-25
  7.3099998E-03    1.0000022E-24
  7.3449998E-03    1.0000010E-24
  7.3799998E-03    9.9999538E-25
  7.4149999E-03    9.9999992E-25
  7.4499999E-03    1.0000051E-24
  7.4850000E-03    9.9999982E-25
  7.5200000E-03    9.9999716E-25
  7.5550000E-03    1.0000014E-24
  7.5900001E-03    1.0000003E-24
  7.6250001E-03    9.9999716E-25
  7.6600001E-03    9.9999963E-25
  7.6950002E-03    1.0000016E-24
  7.7300002E-03    9.9999903E-25
  7.7650002E-03    9.9999933E-25
  7.7999998E-03    1.0000021E-24
  7.8349998E-03    1.0000001E-24
  7.8699999E-03    9.9999775E-25
  7.9049999E-03    1.0000001E-24
  7.9399999E-03    1.0000011E-24
  7.9750000E-03    9.9999903E-25
  8.0100000E-03    9.9999963E-25
  8.0450000E-03    1.0000024E-24
  8.0800001E-03    1.0000016E-24
  8.1150001E-03    9.9999953E-25
  8.1500001E-03    9.9999992E-25
  8.1850002E-03    1.0000002E-24
  8.2200002E-03    9.9999953E-25
  8.2550002E-03    9.9999874E-25
  8.2900003E-03    9.9999884E-25
  8.3250003E-03    1.0000004E-24
  8.3600003E-03    1.0000015E-24
  8.3950004E-03    1.0000010E-24
  8.4300004E-03    1.0000004E-24
  8.4650004E-03    9.9999963E-25
  8.5000005E-03    9.9999815E-25
  8.5349996E-03    9.9999982E-25
  8.5699996E-03    1.0000020E-24
  8.6049996E-03    9.9999943E-25
  8.6399997E-03    9.9999982E-25
  8.6749997E-03    1.0000030E-24
  8.7099997E-03    1.0000002E-24
  8.7449998E-03    9.9999716E-25
  8.7799998E-03    1.0000007E-24
  8.8149998E-03    1.0000017E-24
  8.8499999E-03    9.9999943E-25
  8.8849999E-03    1.0000003E-24
  8.9199999E-03    1.0000008E-24
  8.9550000E-03    9.9999864E-25
  8.9900000E-03    9.9999953E-25
  9.0250000E-03    9.9999963E-25
  9.0600001E-03    9.9999874E-25
  9.0950001E-03    1.0000009E-24
  9.1300001E-03    1.0000015E-24
  9.1650002E-03    9.9999854E-25
  9.2000002E-03    1.0000000E-24
  9.2350002E-03    1.0000027E-24
  9.2700003E-03    1.0000001E-24
  9.3050003E-03    9.9999884E-25
  9.3400003E-03    1.0000006E-24
  9.3750004E-03    1.0000004E-24
  9.4100004E-03    9.9999903E-25
  9.4450004E-03    9.9999913E-25
  9.4799995E-03    9.9999933E-25
  9.5149996E-03    1.0000000E-24
  9.5499996E-03    1.0000005E-24
  9.5849996E-03    1.0000003E-24
  9.6199997E-03    1.0000014E-24
  9.6549997E-03    1.0000017E-24
  9.6899997E-03    1.0000003E-24
  9.7249998E-03    1.0000000E-24
  9.7599998E-03    9.9999953E-25
  9.7949998E-03    9.9999795E-25
  9.8299999E-03    9.9999874E-25
  9.8649999E-03    1.0000003E-24
  9.8999999E-03    1.0000001E-24
  9.9350000E-03    1.0000019E-24
  9.9700000E-03    1.0000037E-24
  1.0005000E-02    9.9999903E-25
  1.0040000E-02    9.9999538E-25
  1.0075000E-02    1.0000011E-24
  1.0110000E-02    1.0000061E-24
  1.0145000E-02    9.9999884E-25
  1.0180000E-02    9.9999055E-25
  1.0215000E-02    9.9999903E-25
  1.0250000E-02    1.0000159E-24
  1.0285000E-02    1.0000092E-24
  1.0320000E-02    9.9997892E-25
  1.0355000E-02    9.9997833E-25
  1.0390000E-02    1.0000259E-24
  1.0425000E-02    1.0000408E-24
  1.0460000E-02    9.9997004E-25
  1.0495000E-02    9.9992636E-25
  1.0530000E-02    1.0000277E-24
  1.0565000E-02    1.0001279E-24
  1.0600000E-02    9.9999351E-25
  1.0635000E-02    9.9979294E-25
  1.0670000E-02    9.9995042E-25
  1.0705000E-02    1.0003141E-24
  1.0740000E-02    1.0001676E-24
  1.0775000E-02    9.9955392E-25
  1.0810000E-02    9.9961091E-25
  1.0845000E-02    1.0005868E-24
  1.0880000E-02    1.0007783E-24
  1.0915000E-02    9.9931125E-25
  1.0950000E-02    9.9858441E-25
  1.0985000E-02    1.0006569E-24
  1.1020000E-02    1.0023974E-24
  1.1055000E-02    9.9968990E-25
  1.1090000E-02    9.9619160E-25
  1.1125000E-02    9.9934951E-25
  1.1160000E-02    1.0056919E-24
  1.1195000E-02    1.0026996E-24
  1.1230000E-02    9.9203696E-25
  1.1265000E-02    9.9346155E-25
  1.1300000E-02    1.0102631E-24
  1.1335000E-02    1.0131162E-24
  1.1370000E-02    9.8825950E-25
  1.1405000E-02    9.7640844E-25
  1.1440000E-02    1.0107400E-24
  1.1475000E-02    1.0391864E-24
  1.1510000E-02    9.9563249E-25
  1.1545000E-02    9.3919186E-25
  1.1580000E-02    9.8796940E-25
  1.1615000E-02    1.0883019E-24
  1.1650000E-02    1.0453851E-24
  1.1685000E-02    8.8083430E-25
  1.1720000E-02    8.9476085E-25
  1.1755000E-02    1.1465270E-24
  1.1790000E-02    1.2035593E-24
  1.1825000E-02    8.4379550E-25
  1.1860000E-02    6.4655212E-25
  1.1895000E-02    1.1228170E-24
  1.1930000E-02    1.5659168E-24
  1.1965000E-02    9.9487637E-25
  1.2000000E-02    1.5649706E-25
  1.2035000E-02    7.4141275E-25
  1.2070000E-02    2.1693093E-24
  1.2105000E-02    1.7534585E-24
  1.2140000E-02   -4.8994001E-25
  1.2175000E-02   -5.8649432E-25
  1.2210000E-02    2.6911580E-24
  1.2245000E-02    3.8757438E-24
  1.2280000E-02   -5.6614166E-25
  1.2315000E-02   -3.7234302E-24
  1.2350000E-02    1.7789604E-24
  1.2385000E-02    8.1642741E-24
  1.2420000E-02    2.1703433E-24
  1.2455000E-02   -9.0783178E-24
  1.2490000E-02   -3.9651443E-24
  1.2525000E-02    1.4058484E-23
  1.2560000E-02    1.2453474E-23
  1.2595000E-02   -1.4226792E-23
  1.2630000E-02   -2.0555936E-23
  1.2665000E-02    1.6003504E-23
  1.2700000E-02    3.7051232E-23
  1.2735000E-02   -8.8530310E-24
  1.2770000E-02   -5.4179825E-23
  1.2805000E-02   -2.9366363E-24
  1.2840000E-02    7.8999939E-23
  1.2875000E-02    3.2335888E-23
  1.2910000E-02   -1.0044216E-22
  1.2945000E-02   -7.7352999E-23
  1.2980000E-02    1.2005102E-22
  1.3015000E-02    1.5226675E-22
  1.3050000E-02   -1.1848422E-22
  1.3085000E-02   -2.5399988E-22
  1.3120000E-02    8.5976675E-23
  1.3155000E-02    3.9127642E-22
  1.3190000E-02    1.0777154E-23
  1.3225000E-02   -5.4821976E-22
  1.3260000E-02   -1.9660475E-22
  1.3295000E-02    7.1020221E-22
  1.3330000E-02    5.1757888E-22
  1.3365000E-02   -8.2407106E-22
  1.3400000E-02   -1.0030098E-21
  1.3435000E-02    8.2151137E-22
  1.3470000E-02    1.6859242E-21
  1.3505000E-02   -5.7926220E-22
  1.3540000E-02   -2.5522014E-21
  1.3575000E-02   -5.2766660E-23
  1.3610000E-02    3.5450647E-21
  1.3645000E-02    1.2787521E-21
  1.3680000E-02   -4.4967667E-21
  1.3715000E-02   -3.3050357E-21
  1.3750000E-02    5.1179490E-21
  1.3785000E-02    6.3289071E-21
  1.3820000E-02   -4.9228709E-21
  1.3855000E-02   -1.0431550E-20
  1.3890000E-02    3.2307344E-21
  1.3925000E-02    1.5495733E-20
  1.3960000E-02    8.6611929E-22
  1.3995000E-02   -2.1018007E-20
  1.4030000E-02   -8.4117176E-21
  1.4065000E-02    2.5949363E-20
  1.4100000E-02    2.0467710E-20
  1.4135000E-02   -2.8460160E-20
  1.4170000E-02   -3.7801634E-20
  1.4205000E-02    2.5800450E-20
  1.4240000E-02    6.0473688E-20
  1.4275000E-02   -1.4201995E-20
  1.4310000E-02   -8.7181211E-20
  1.4345000E-02   -1.0944748E-20
  1.4380000E-02    1.1450130E-19
  1.4415000E-02    5.4630155E-20
  1.4450000E-02   -1.3598246E-19
  1.4485000E-02   -1.2120559E-19
  1.4520000E-02    1.4137363E-19
  1.4555000E-02    2.1278539E-19
  1.4590000E-02   -1.1612946E-19
  1.4625000E-02   -3.2685951E-19
  1.4660000E-02    4.1712524E-20
  1.4695000E-02    4.5328815E-19
  1.4730000E-02    1.0292942E-19
  1.4765000E-02   -5.7079469E-19
  1.4800000E-02   -3.3800880E-19
  1.4835000E-02    6.4363683E-19
  1.4870000E-02    6.7724539E-19
  1.4905000E-02   -6.1928965E-19
  1.4940000E-02   -1.1194455E-18
  1.4975000E-02    4.2861945E-19
  1.5010000E-02    1.6375165E-18
  1.5045000E-02    9.7357623E-21
  1.5080000E-02   -2.1655597E-18
  1.5115000E-02   -7.7866156E-19
  1.5150000E-02    2.5860958E-18
  1.5185000E-02    1.9436470E-18
  1.5220000E-02   -2.7204146E-18
  1.5255000E-02   -3.5242803E-18
  1.5290000E-02    2.3269862E-18
  1.5325000E-02    5.4564171E-18
  1.5360000E-02   -1.1137007E-18
  1.5395000E-02   -7.5475144E-18
  1.5430000E-02   -1.2289682E-18
  1.5465000E-02    9.4311022E-18
  1.5500000E-02    4.9672936E-18
  1.5535000E-02   -1.0531192E-17
  1.5570000E-02   -1.0232060E-17
  1.5605000E-02    1.0051301E-17
  1.5640000E-02    1.6894830E-17
  1.5675001E-02   -7.0083159E-18
  1.5710000E-02   -2.4421459E-17
  1.5745001E-02    3.3205069E-19
  1.5780000E-02    3.1720954E-17
  1.5814999E-02    1.0947041E-17
  1.5850000E-02   -3.7024962E-17
  1.5884999E-02   -2.7412284E-17
  1.5920000E-02    3.7842060E-17
  1.5954999E-02    4.8874757E-17
  1.5990000E-02   -3.1050120E-17
  1.6024999E-02   -7.3916860E-17
  1.6060000E-02    1.3189933E-17
  1.6094999E-02    9.9423305E-17
  1.6130000E-02    1.8977887E-17
  1.6164999E-02   -1.2019988E-16
  1.6200000E-02   -6.7616278E-17
  1.6235000E-02    1.2882339E-16
  1.6270000E-02    1.3266687E-16
  1.6305000E-02   -1.1589465E-16
  1.6340001E-02   -2.1049687E-16
  1.6375000E-02    7.0888882E-17
  1.6410001E-02    2.9252693E-16
  1.6445000E-02    1.6239886E-17
  1.6480001E-02   -3.6411442E-16
  1.6515000E-02   -1.5260102E-16
  1.6550001E-02    4.0412530E-16
  1.6585000E-02    3.3910707E-16
  1.6620001E-02   -3.8565632E-16
  1.6655000E-02   -5.6667584E-16
  1.6690001E-02    2.7843071E-16
  1.6725000E-02    8.1240370E-16
  1.6759999E-02   -5.3300944E-17
  1.6795000E-02   -1.0365728E-15
  1.6829999E-02   -3.1098256E-16
  1.6865000E-02    1.1815594E-15
  1.6899999E-02    8.1889488E-16
  1.6935000E-02   -1.1739683E-15
  1.6969999E-02   -1.4479668E-15
  1.7005000E-02    9.3127048E-16
  1.7039999E-02    2.1387933E-15
  1.7075000E-02   -3.7398511E-16
  1.7109999E-02   -2.7875058E-15
  1.7145000E-02   -5.5641547E-16
  1.7180000E-02    3.2434323E-15
  1.7215000E-02    1.8743122E-15
  1.7250000E-02   -3.3155125E-15
  1.7285001E-02   -3.5242277E-15
  1.7320000E-02    2.7901879E-15
  1.7355001E-02    5.3560824E-15
  1.7390000E-02   -1.4631968E-15
  1.7425001E-02   -7.1076686E-15
  1.7460000E-02   -8.1466538E-16
  1.7495001E-02    8.4012209E-15
  1.7530000E-02    4.0804271E-15
  1.7565001E-02   -8.7617850E-15
  1.7600000E-02   -8.1964346E-15
  1.7635001E-02    7.6644420E-15
  1.7670000E-02    1.2793411E-14
  1.7704999E-02   -4.6141747E-15
  1.7740000E-02   -1.7232899E-14
  1.7774999E-02   -7.4270427E-16
  1.7810000E-02    2.0606086E-14
  1.7844999E-02    8.4832671E-15
  1.7880000E-02   -2.1786367E-14
  1.7914999E-02   -1.8266101E-14
  1.7950000E-02    1.9547984E-14
  1.7984999E-02    2.9207119E-14
  1.8020000E-02   -1.2759712E-14
  1.8054999E-02   -3.9808380E-14
  1.8090000E-02    6.4353063E-16
  1.8124999E-02    4.7975384E-14
  1.8160000E-02    1.6922236E-14
  1.8195000E-02   -5.1157846E-14
  1.8230001E-02   -3.9096357E-14
  1.8265000E-02    4.6640917E-14
  1.8300001E-02    6.3827287E-14
  1.8335000E-02   -3.1988335E-14
  1.8370001E-02   -8.7734887E-14
  1.8405000E-02    5.6167636E-15
  1.8440001E-02    1.0619863E-13
  1.8475000E-02    3.2558459E-14
  1.8510001E-02   -1.1372108E-13
  1.8545000E-02   -8.0510095E-14
  1.8580001E-02    1.0459996E-13
  1.8615000E-02    1.3363740E-13
  1.8650001E-02   -7.3905312E-14
  1.8685000E-02   -1.8462151E-13
  1.8719999E-02    1.8682433E-14
  1.8755000E-02    2.2372863E-13
  1.8789999E-02    6.0756799E-14
  1.8825000E-02   -2.3968588E-13
  1.8859999E-02   -1.5967781E-13
  1.8895000E-02    2.2116579E-13
  1.8929999E-02    2.6816171E-13
  1.8965000E-02   -1.5881799E-13
  1.8999999E-02   -3.7103984E-13
  1.9035000E-02    4.7659576E-14
  1.9069999E-02    4.4877014E-13
  1.9105000E-02    1.1050811E-13
  1.9140000E-02   -4.7941170E-13
  1.9175000E-02   -3.0508370E-13
  1.9210000E-02    4.4173069E-13
  1.9245001E-02    5.1559023E-13
  1.9280000E-02   -3.1919270E-13
  1.9315001E-02   -7.1203465E-13
  1.9350000E-02    1.0441793E-13
  1.9385001E-02    8.5709640E-13
  1.9420000E-02    1.9656974E-13
  1.9455001E-02   -9.1035122E-13
  1.9490000E-02   -5.6118814E-13
  1.9525001E-02    8.3434561E-13
  1.9560000E-02    9.4911611E-13
  1.9595001E-02   -6.0200992E-13
  1.9630000E-02   -1.3039124E-12
  1.9664999E-02    2.0445611E-13
  1.9700000E-02    1.5580122E-12
  1.9734999E-02    3.4219865E-13
  1.9770000E-02   -1.6410447E-12
  1.9804999E-02   -9.9238413E-13
  1.9840000E-02    1.4911418E-12
  1.9874999E-02    1.6706578E-12
  1.9910000E-02   -1.0677548E-12
  1.9944999E-02   -2.2762725E-12
  1.9980000E-02    3.6434110E-13
  2.0014999E-02    2.6934856E-12
  2.0050000E-02    5.8157878E-13
  2.0085000E-02   -2.8070567E-12
  2.0120000E-02   -1.6832974E-12
  2.0155000E-02    2.5217439E-12
  2.0190001E-02    2.8070723E-12
  2.0225000E-02   -1.7831091E-12
  2.0260001E-02   -3.7828135E-12
  2.0295000E-02    5.9649822E-13
  2.0330001E-02    4.4235926E-12
  2.0365000E-02    9.5980906E-13
  2.0400001E-02   -4.5524825E-12
  2.0435000E-02   -2.7305411E-12
  2.0470001E-02    4.0340283E-12
  2.0505000E-02    4.4919602E-12
  2.0540001E-02   -2.8053922E-12
  2.0575000E-02   -5.9732991E-12
  2.0609999E-02    9.0222214E-13
  2.0645000E-02    6.8908971E-12
  2.0679999E-02    1.5266648E-12
  2.0715000E-02   -6.9915549E-12
  2.0749999E-02   -4.2205493E-12
  2.0785000E-02    6.0994157E-12
  2.0819999E-02    6.8270745E-12
  2.0855000E-02   -4.1589059E-12
  2.0889999E-02   -8.9413121E-12
  2.0925000E-02    1.2660056E-12
  2.0959999E-02    1.0160806E-11
  2.0995000E-02    2.3198286E-12
  2.1029999E-02   -1.0150121E-11
  2.1065000E-02   -6.1887440E-12
  2.1100000E-02    8.7053862E-12
  2.1135001E-02    9.8204622E-12
  2.1170000E-02   -5.8077770E-12
  2.1205001E-02   -1.2648495E-11
  2.1240000E-02    1.6554540E-12
  2.1275001E-02    1.4142127E-11
  2.1310000E-02    3.3349747E-12
  2.1345001E-02   -1.3894693E-11
  2.1380000E-02   -8.5622134E-12
  2.1415001E-02    1.1704509E-11
  2.1450000E-02    1.3308936E-11
  2.1485001E-02   -7.6337530E-12
  2.1520000E-02   -1.6838281E-11
  2.1555001E-02    2.0317422E-12
  2.1590000E-02    1.8505393E-11
  2.1624999E-02    4.4842363E-12
  2.1660000E-02   -1.7868268E-11
  2.1694999E-02   -1.1094531E-11
  2.1730000E-02    1.4777761E-11
  2.1764999E-02    1.6881465E-11
  2.1800000E-02   -9.4313498E-12
  2.1834999E-02   -2.0961831E-11
  2.1870000E-02    2.3751706E-12
  2.1904999E-02    2.2625480E-11
  2.1940000E-02    5.5489988E-12
  2.1974999E-02   -2.1459593E-11
  2.2010000E-02   -1.3309473E-11
  2.2045000E-02    1.7434920E-11
  2.2080000E-02    1.9829423E-11
  2.2115000E-02   -1.0937111E-11
  2.2150001E-02   -2.4150361E-11
  2.2185000E-02    2.7325091E-12
  2.2220001E-02    2.5586724E-11
  2.2255000E-02    6.1298995E-12
  2.2290001E-02   -2.3845953E-11
  2.2325000E-02   -1.4469521E-11
  2.2360001E-02    1.9089294E-11
  2.2395000E-02    2.1153005E-11
  2.2430001E-02   -1.1920897E-11
  2.2465000E-02   -2.5273983E-11
  2.2500001E-02    3.3015723E-12
  2.2535000E-02    2.6299948E-11
  2.2569999E-02    5.5998236E-12
  2.2605000E-02   -2.4159844E-11
  2.2639999E-02   -1.3595144E-11
  2.2675000E-02    1.9252051E-11
  2.2709999E-02    1.9670893E-11
  2.2745000E-02   -1.2370035E-11
  2.2779999E-02   -2.3151746E-11
  2.2815000E-02    4.5567408E-12
  2.2849999E-02    2.3801610E-11
  2.2885000E-02    3.0859898E-12
  2.2919999E-02   -2.1841121E-11
  2.2955000E-02   -9.5961745E-12
  2.2990000E-02    1.7875638E-11
  2.3025000E-02    1.4317532E-11
  2.3060000E-02   -1.2747365E-11
  2.3095001E-02   -1.6996340E-11
  2.3130000E-02    7.3429344E-12
  2.3165001E-02    1.7786753E-11
  2.3200000E-02   -2.3994669E-12
  2.3235001E-02   -1.7162889E-11
  2.3270000E-02   -1.6460242E-12
  2.3305001E-02    1.5756377E-11
  2.3340000E-02    4.7266132E-12
  2.3375001E-02   -1.4156253E-11
  2.3410000E-02   -7.1111107E-12
  2.3445001E-02    1.2726271E-11
  2.3480000E-02    9.2746678E-12
  2.3514999E-02   -1.1485065E-11
  2.3550000E-02   -1.1698968E-11
  2.3584999E-02    1.0092702E-11
  2.3620000E-02    1.4658245E-11
  2.3654999E-02   -7.9528753E-12
  2.3690000E-02   -1.8048401E-11
  2.3724999E-02    4.4165106E-12
  2.3760000E-02    2.1318310E-11
  2.3794999E-02    9.6208414E-13
  2.3830000E-02   -2.3535384E-11
  2.3864999E-02   -8.1837705E-12
  2.3900000E-02    2.3589570E-11
  2.3934999E-02    1.6653507E-11
  2.3970000E-02   -2.0494465E-11
  2.4005000E-02   -2.5175423E-11
  2.4040001E-02    1.3720300E-11
  2.4075000E-02    3.2125087E-11
  2.4110001E-02   -3.4626917E-12
  2.4145000E-02   -3.5773998E-11
  2.4180001E-02   -9.2316987E-12
  2.4215000E-02    3.4707529E-11
  2.4250001E-02    2.2544586E-11
  2.4285000E-02   -2.8231894E-11
  2.4320001E-02   -3.4176374E-11
  2.4355000E-02    1.6665400E-11
  2.4390001E-02    4.1803908E-11
  2.4425000E-02   -1.4179931E-12
  2.4460001E-02   -4.3603701E-11
  2.4495000E-02   -1.5183493E-11
  2.4529999E-02    3.8719701E-11
  2.4565000E-02    3.0311195E-11
  2.4599999E-02   -2.7544893E-11
  2.4635000E-02   -4.1208516E-11
  2.4669999E-02    1.1734782E-11
  2.4705000E-02    4.5790940E-11
  2.4739999E-02    6.0758000E-12
  2.4775000E-02   -4.3123175E-11
  2.4809999E-02   -2.2793559E-11
  2.4845000E-02    3.3652747E-11
  2.4879999E-02    3.5513033E-11
  2.4915000E-02   -1.9130249E-11
  2.4950000E-02   -4.2129508E-11
  2.4985000E-02    2.2269810E-12
  2.5020000E-02    4.1762645E-11
  2.5055001E-02    1.4051743E-11
  2.5090000E-02   -3.4889373E-11
  2.5125001E-02   -2.7010021E-11
  2.5160000E-02    2.3156546E-11
  2.5195001E-02    3.4797432E-11
  2.5230000E-02   -8.9349483E-12
  2.5265001E-02   -3.6705736E-11
  2.5300000E-02   -5.2581758E-12
  2.5335001E-02    3.3161557E-11
  2.5370000E-02    1.7302776E-11
  2.5405001E-02   -2.5442187E-11
  2.5440000E-02   -2.5835235E-11
  2.5474999E-02    1.5229835E-11
  2.5510000E-02    3.0347117E-11
  2.5544999E-02   -4.1536258E-12
  2.5580000E-02   -3.1029786E-11
  2.5614999E-02   -6.5362984E-12
  2.5650000E-02    2.8454621E-11
  2.5684999E-02    1.6075405E-11
  2.5720000E-02   -2.3221237E-11
  2.5754999E-02   -2.4052598E-11
  2.5790000E-02    1.5734839E-11
  2.5824999E-02    3.0133888E-11
  2.5860000E-02   -6.2057750E-12
  2.5895000E-02   -3.3796684E-11
  2.5930000E-02   -5.1384595E-12
  2.5965000E-02    3.4219069E-11
  2.6000001E-02    1.7730050E-11
  2.6035000E-02   -3.0399818E-11
  2.6070001E-02   -3.0360360E-11
  2.6105000E-02    2.1529594E-11
  2.6140001E-02    4.1081138E-11
  2.6175000E-02   -7.5091955E-12
  2.6210001E-02   -4.7433720E-11
  2.6245000E-02   -1.0580874E-11
  2.6280001E-02    4.7025141E-11
  2.6315000E-02    3.0307826E-11
  2.6350001E-02   -3.8272979E-11
  2.6385000E-02   -4.8112892E-11
  2.6419999E-02    2.1115838E-11
  2.6455000E-02    5.9952009E-11
  2.6489999E-02    2.5294955E-12
  2.6525000E-02   -6.2273624E-11
  2.6559999E-02   -2.8792359E-11
  2.6595000E-02    5.3109208E-11
  2.6629999E-02    5.2502815E-11
  2.6665000E-02   -3.2878710E-11
  2.6699999E-02   -6.8329412E-11
  2.6735000E-02    4.6261094E-12
  2.6769999E-02    7.2082056E-11
  2.6805000E-02    2.6384492E-11
  2.6839999E-02   -6.1886156E-11
  2.6875000E-02   -5.3672830E-11
  2.6910000E-02    3.8961643E-11
  2.6945001E-02    7.1061157E-11
  2.6980000E-02   -7.6311587E-12