 -4.8000002E-03    1.0000000E-24
 -4.7650002E-03    1.0000000E-24
 -4.7300002E-03    1.0000002E-24
 -4.6950001E-03    1.0000001E-24
 -4.6600001E-03    1.0000001E-24
 -4.6250001E-03    1.0000000E-24
 -4.5900000E-03    1.0000000E-24
 -4.5550000E-03    1.0000001E-24
 -4.5200000E-03    1.0000003E-24
 -4.4849999E-03    1.0000002E-24
 -4.4499999E-03    9.9999992E-25
 -4.4149999E-03    9.9999982E-25
 -4.3799998E-03    9.9999992E-25
 -4.3449998E-03    1.0000004E-24
 -4.3100002E-03    1.0000005E-24
 -4.2750002E-03    1.0000001E-24
 -4.2400002E-03    9.9999972E-25
 -4.2050001E-03    9.9999982E-25
 -4.1700001E-03    1.0000001E-24
 -4.1350001E-03    1.0000001E-24
 -4.1000000E-03    9.9999992E-25
 -4.0650000E-03    1.0000002E-24
 -4.0300000E-03    1.0000005E-24
 -3.9949999E-03    1.0000002E-24
 -3.9599999E-03    9.9999972E-25
 -3.9249999E-03    9.9999972E-25
 -3.8900001E-03    1.0000001E-24
 -3.8550000E-03    1.0000003E-24
 -3.8200000E-03    9.9999992E-25
 -3.7849999E-03    9.9999982E-25
 -3.7499999E-03    1.0000000E-24
 -3.7150001E-03    1.0000005E-24
 -3.6800001E-03    1.0000006E-24
 -3.6450000E-03    1.0000002E-24
 -3.6100000E-03    9.9999982E-25
 -3.5750000E-03    9.9999972E-25
 -3.5399999E-03    1.0000000E-24
 -3.5049999E-03    1.0000002E-24
 -3.4700001E-03    1.0000003E-24
 -3.4350001E-03    1.0000004E-24
 -3.4000000E-03    9.9999992E-25
 -3.3650000E-03    9.9999943E-25
 -3.3300000E-03    9.9999972E-25
 -3.2949999E-03    1.0000003E-24
 -3.2599999E-03    1.0000005E-24
 -3.2250001E-03    1.0000002E-24
 -3.1900001E-03    9.9999982E-25
 -3.1550000E-03    9.9999982E-25
 -3.1200000E-03    1.0000001E-24
 -3.0850000E-03    1.0000003E-24
 -3.0499999E-03    9.9999992E-25
 -3.0149999E-03    9.9999972E-25
 -2.9800001E-03    1.0000000E-24
 -2.9450001E-03    1.0000002E-24
 -2.9100000E-03    1.0000001E-24
 -2.8750000E-03    1.0000003E-24
 -2.8400000E-03    1.0000005E-24
 -2.8049999E-03    1.0000001E-24
 -2.7699999E-03    9.9999963E-25
 -2.7350001E-03    9.9999963E-25
 -2.7000001E-03    1.0000004E-24
 -2.6650000E-03    1.0000009E-24
 -2.6300000E-03    1.0000005E-24
 -2.5950000E-03    9.9999953E-25
 -2.5599999E-03    9.9999953E-25
 -2.5249999E-03    1.0000004E-24
 -2.4900001E-03    1.0000007E-24
 -2.4550001E-03    1.0000002E-24
 -2.4200000E-03    9.9999953E-25
 -2.3850000E-03    9.9999943E-25
 -2.3500000E-03    1.0000000E-24
 -2.3149999E-03    1.0000008E-24
 -2.2799999E-03    1.0000008E-24
 -2.2450001E-03    1.0000002E-24
 -2.2100001E-03    9.9999982E-25
 -2.1750000E-03    9.9999992E-25
 -2.1400000E-03    1.0000001E-24
 -2.1050000E-03    1.0000001E-24
 -2.0699999E-03    9.9999933E-25
 -2.0349999E-03    9.9999903E-25
 -2.0000001E-03    1.0000001E-24
 -1.9650001E-03    1.0000013E-24
 -1.9300000E-03    1.0000012E-24
 -1.8950000E-03    1.0000005E-24
 -1.8600000E-03    1.0000000E-24
 -1.8250000E-03    9.9999972E-25
 -1.7900000E-03    9.9999943E-25
 -1.7550000E-03    9.9999982E-25
 -1.7199999E-03    1.0000005E-24
 -1.6850000E-03    1.0000006E-24
 -1.6500000E-03    1.0000000E-24
 -1.6150000E-03    9.9999933E-25
 -1.5800000E-03    9.9999963E-25
 -1.5450000E-03    1.0000002E-24
 -1.5100000E-03    1.0000002E-24
 -1.4750001E-03    1.0000002E-24
 -1.4400000E-03    1.0000006E-24
 -1.4050000E-03    1.0000004E-24
 -1.3700000E-03    9.9999943E-25
 -1.3350000E-03    9.9999913E-25
 -1.3000000E-03    1.0000000E-24
 -1.2650000E-03    1.0000008E-24
 -1.2300001E-03    1.0000004E-24
 -1.1950000E-03    9.9999933E-25
 -1.1600000E-03    9.9999933E-25
 -1.1250000E-03    1.0000003E-24
 -1.0900000E-03    1.0000009E-24
 -1.0550000E-03    1.0000007E-24
 -1.0200000E-03    9.9999982E-25
 -9.8500005E-04    9.9999923E-25
 -9.5000002E-04    9.9999963E-25
 -9.1499998E-04    1.0000003E-24
 -8.8000001E-04    1.0000003E-24
 -8.4499997E-04    1.0000002E-24
 -8.1000000E-04    1.0000002E-24
 -7.7500002E-04    1.0000003E-24
 -7.3999999E-04    1.0000001E-24
 -7.0500001E-04    1.0000001E-24
 -6.6999998E-04    1.0000005E-24
 -6.3500000E-04    1.0000006E-24
 -6.0000003E-04    9.9999992E-25
 -5.6499999E-04    9.9999963E-25
 -5.3000002E-04    1.0000002E-24
 -4.9499999E-04    1.0000001E-24
 -4.6000001E-04    9.9999933E-25
 -4.2500001E-04    9.9999933E-25
 -3.9000000E-04    1.0000007E-24
 -3.5500000E-04    1.0000016E-24
 -3.1999999E-04    1.0000010E-24
 -2.8499999E-04    9.9999963E-25
 -2.5000001E-04    9.9999903E-25
 -2.1499999E-04    9.9999923E-25
 -1.8000000E-04    9.9999992E-25
 -1.4500000E-04    1.0000005E-24
 -1.1000000E-04    1.0000011E-24
 -7.5000004E-05    1.0000017E-24
 -3.9999999E-05    1.0000005E-24
 -4.9999999E-06    9.9999815E-25
  2.9999999E-05    9.9999785E-25
  6.5000000E-05    9.9999982E-25
  9.9999997E-05    1.0000007E-24
  1.3499999E-04    1.0000005E-24
  1.7000000E-04    1.0000007E-24
  2.0500000E-04    1.0000008E-24
  2.3999999E-04    1.0000000E-24
  2.7500000E-04    9.9999943E-25
  3.1000000E-04    9.9999953E-25
  3.4500001E-04    1.0000005E-24
  3.8000001E-04    1.0000013E-24
  4.1499999E-04    1.0000003E-24
  4.4999999E-04    9.9999884E-25
  4.8500000E-04    9.9999992E-25
  5.2000000E-04    1.0000010E-24
  5.5499998E-04    1.0000000E-24
  5.9000001E-04    9.9999893E-25
  6.2499999E-04    9.9999884E-25
  6.6000002E-04    9.9999972E-25
  6.9500000E-04    1.0000014E-24
  7.3000003E-04    1.0000019E-24
  7.6500000E-04    9.9999972E-25
  7.9999998E-04    9.9999854E-25
  8.3500001E-04    9.9999963E-25
  8.6999999E-04    1.0000002E-24
  9.0500002E-04    1.0000003E-24
  9.4000000E-04    1.0000004E-24
  9.7499997E-04    1.0000000E-24
  1.0100000E-03    9.9999963E-25
  1.0450000E-03    9.9999992E-25
  1.0800000E-03    1.0000000E-24
  1.1150000E-03    1.0000003E-24
  1.1500000E-03    1.0000012E-24
  1.1849999E-03    1.0000011E-24
  1.2200000E-03    9.9999953E-25
  1.2550000E-03    9.9999874E-25
  1.2900000E-03    9.9999992E-25
  1.3250000E-03    1.0000012E-24
  1.3600000E-03    1.0000007E-24
  1.3950000E-03    9.9999992E-25
  1.4299999E-03    9.9999972E-25
  1.4650000E-03    9.9999933E-25
  1.5000000E-03    9.9999943E-25
  1.5350000E-03    1.0000006E-24
  1.5700000E-03    1.0000008E-24
  1.6050000E-03    9.9999992E-25
  1.6400000E-03    9.9999933E-25
  1.6749999E-03    9.9999893E-25
  1.7100000E-03    9.9999943E-25
  1.7450000E-03    1.0000014E-24
  1.7800000E-03    1.0000021E-24
  1.8150000E-03    1.0000006E-24
  1.8500000E-03    9.9999972E-25
  1.8850000E-03    1.0000001E-24
  1.9200000E-03    1.0000005E-24
  1.9550000E-03    1.0000006E-24
  1.9900000E-03    1.0000005E-24
  2.0250001E-03    9.9999992E-25
  2.0600001E-03    9.9999982E-25
  2.0949999E-03    1.0000001E-24
  2.1299999E-03    9.9999992E-25
  2.1650000E-03    9.9999963E-25
  2.2000000E-03    9.9999982E-25
  2.2350000E-03    1.0000007E-24
  2.2700001E-03    1.0000007E-24
  2.3050001E-03    9.9999933E-25
  2.3399999E-03    9.9999903E-25
  2.3749999E-03    1.0000006E-24
  2.4100000E-03    1.0000017E-24
  2.4450000E-03    1.0000004E-24
  2.4800000E-03    9.9999923E-25
  2.5150001E-03    9.9999923E-25
  2.5500001E-03    9.9999943E-25
  2.5849999E-03    9.9999933E-25
  2.6199999E-03    9.9999982E-25
  2.6550000E-03    1.0000006E-24
  2.6900000E-03    1.0000007E-24
  2.7250000E-03    1.0000000E-24
  2.7600001E-03    1.0000002E-24
  2.7950001E-03    1.0000007E-24
  2.8299999E-03    1.0000001E-24
  2.8649999E-03    9.9999933E-25
  2.9000000E-03    9.9999992E-25
  2.9350000E-03    1.0000013E-24
  2.9700000E-03    1.0000015E-24
  3.0050001E-03    1.0000001E-24
  3.0400001E-03    9.9999893E-25
  3.0749999E-03    9.9999903E-25
  3.1099999E-03    9.9999953E-25
  3.1450000E-03    9.9999953E-25
  3.1800000E-03    1.0000011E-24
  3.2150000E-03    1.0000033E-24
  3.2500001E-03    1.0000007E-24
  3.2850001E-03    9.9999460E-25
  3.3199999E-03    9.9999627E-25
  3.3549999E-03    1.0000081E-24
  3.3900000E-03    1.0000091E-24
  3.4250000E-03    9.9998868E-25
  3.4600000E-03    9.9998237E-25
  3.4950001E-03    1.0000190E-24
  3.5300001E-03    1.0000356E-24
  3.5649999E-03    9.9996916E-25
  3.5999999E-03    9.9992735E-25
  3.6350000E-03    1.0000441E-24
  3.6700000E-03    1.0001422E-24
  3.7050000E-03    9.9994618E-25
  3.7400001E-03    9.9973496E-25
  3.7750001E-03    1.0000524E-24
  3.8099999E-03    1.0004857E-24
  3.8449999E-03    9.9999223E-25
  3.8800000E-03    9.9913227E-25
  3.9149998E-03    9.9985349E-25
  3.9499998E-03    1.0015079E-24
  3.9849998E-03    1.0005481E-24
  4.0199999E-03    9.9745732E-25
  4.0549999E-03    9.9853106E-25
  4.0899999E-03    1.0041337E-24
  4.1250000E-03    1.0034066E-24
  4.1600000E-03    9.9356232E-25
  4.1950000E-03    9.9275423E-25
  4.2300001E-03    1.0094949E-24
  4.2650001E-03    1.0144897E-24
  4.3000001E-03    9.8702089E-25
  4.3350002E-03    9.7243150E-25
  4.3700002E-03    1.0156981E-24
  4.4049998E-03    1.0502113E-24
  4.4399998E-03    9.8534989E-25
  4.4749998E-03    9.1223796E-25
  4.5099999E-03    1.0033927E-24
  4.5449999E-03    1.1472161E-24
  4.5799999E-03    1.0306541E-24
  4.6150000E-03    7.6358033E-25
  4.6500000E-03    8.8967477E-25
  4.6850001E-03    1.3614861E-24
  4.7200001E-03    1.2745706E-24
  4.7550001E-03    4.7927555E-25
  4.7900002E-03    4.1406959E-25
  4.8250002E-03    1.6924480E-24
  4.8600002E-03    2.1385465E-24
  4.8949998E-03    1.8721751E-25
  4.9299998E-03   -1.0635984E-24
  4.9649999E-03    1.7384179E-24
  4.9999999E-03    4.5254177E-24
  5.0349999E-03    8.1129887E-25
  5.0700000E-03   -4.6955510E-24
  5.1050000E-03   -3.3714581E-25
  5.1400000E-03    9.6832968E-24
  5.1750001E-03    5.6667212E-24
  5.2100001E-03   -1.1389014E-23
  5.2450001E-03   -1.0070716E-23
  5.2800002E-03    1.7233058E-23
  5.3150002E-03    2.3349418E-23
  5.3500002E-03   -1.7700977E-23
  5.3849998E-03   -3.9805669E-23
  5.4199998E-03    1.7644334E-23
  5.4549999E-03    6.9951313E-23
  5.4899999E-03   -3.2999412E-24
  5.5249999E-03   -1.0769668E-22
  5.5600000E-03   -2.6933109E-23
  5.5950000E-03    1.6065164E-22
  5.6300000E-03    9.5760652E-23
  5.6650001E-03   -2.1504262E-22
  5.7000001E-03   -2.1580579E-22
  5.7350001E-03    2.6267801E-22
  5.7700002E-03    4.2099156E-22
  5.8050002E-03   -2.6147212E-22
  5.8400002E-03   -7.3081165E-22
  5.8749998E-03    1.5743006E-22
  5.9099998E-03    1.1729075E-21
  5.9449999E-03    1.5904564E-22
  5.9799999E-03   -1.7323672E-21
  6.0149999E-03   -8.3184098E-22
  6.0500000E-03    2.3514079E-21
  6.0850000E-03    2.0750492E-21
  6.1200000E-03   -2.8471470E-21
  6.1550001E-03   -4.1278522E-21
  6.1900001E-03    2.8731119E-21
  6.2250001E-03    7.2399654E-21
  6.2600002E-03   -1.7993814E-21
  6.2950002E-03   -1.1536556E-20
  6.3299998E-03   -1.3471486E-21
  6.3649998E-03    1.6861582E-20
  6.3999998E-03    7.9790625E-21
  6.4349999E-03   -2.2440825E-20
  6.4699999E-03   -1.9894468E-20
  6.5049999E-03    2.6471237E-20
  6.5400000E-03    3.9106615E-20
  6.5750000E-03   -2.5513854E-20
  6.6100000E-03   -6.7291789E-20
  6.6450001E-03    1.3881280E-20
  6.6800001E-03    1.0480952E-19
  6.7150001E-03    1.6946698E-20
  6.7500002E-03   -1.4897802E-19
  6.7850002E-03   -7.8442100E-20
  6.8199998E-03    1.9158074E-19
  6.8549998E-03    1.8430064E-19
  6.8899998E-03   -2.1546521E-19
  6.9249999E-03   -3.4799951E-19
  6.9599999E-03    1.9063697E-19
  6.9949999E-03    5.7781781E-19
  7.0300000E-03   -7.0498988E-20
  7.0650000E-03   -8.6813195E-19
  7.1000000E-03   -2.1008395E-19
  7.1350001E-03    1.1862619E-18
  7.1700001E-03    7.3249330E-19
  7.2050001E-03   -1.4544813E-18
  7.2400002E-03   -1.5839791E-18
  7.2750002E-03    1.5285419E-18
  7.3099998E-03    2.8345796E-18
  7.3449998E-03   -1.1761687E-18
  7.3799998E-03   -4.4959123E-18
  7.4149999E-03    6.2883324E-20
  7.4499999E-03    6.4575203E-18
  7.4850000E-03    2.2430446E-18
  7.5200000E-03   -8.3991820E-18
  7.5550000E-03   -6.2290819E-18
  7.5900001E-03    9.6843808E-18
  7.6250001E-03    1.2338446E-17
  7.6600001E-03   -9.2507810E-18
  7.6950002E-03   -2.0787388E-17
  7.7300002E-03    5.5299204E-18
  7.7650002E-03    3.1279550E-17
  7.7999998E-03    3.5515616E-18
  7.8349998E-03   -4.2610525E-17
  7.8699999E-03   -2.0413433E-17
  7.9049999E-03    5.2184965E-17
  7.9399999E-03    4.7412560E-17
  7.9750000E-03   -5.5513752E-17
  8.0100000E-03   -8.6080630E-17
  8.0450000E-03    4.5827434E-17
  8.0800001E-03    1.3592700E-16
  8.1150001E-03   -1.4023340E-17
  8.1500001E-03   -1.9278319E-16
  8.1850002E-03   -5.0747213E-17
  8.2200002E-03    2.4678623E-16
  8.2550002E-03    1.5947736E-16
  8.2900003E-03   -2.8028058E-16
  8.3250003E-03   -3.2029823E-16
  8.3600003E-03    2.6618752E-16
  8.3950004E-03    5.3377163E-16
  8.4300004E-03   -1.6768837E-16
  8.4650004E-03   -7.8642980E-16
  8.5000005E-03   -5.9608111E-17
  8.5349996E-03    1.0429875E-15
  8.5699996E-03    4.6163867E-16
  8.6049996E-03   -1.2383539E-15
  8.6399997E-03   -1.0746336E-15
  8.6749997E-03    1.2715164E-15
  8.7099997E-03    1.9076906E-15
  8.7449998E-03   -1.0044631E-15
  8.7799998E-03   -2.9192425E-15
  8.8149998E-03    2.7022585E-16
  8.8499999E-03    3.9892033E-15
  8.8849999E-03    1.1052246E-15
  8.9199999E-03   -4.8911668E-15
  8.9550000E-03   -3.2629282E-15
  8.9900000E-03    5.2720944E-15
  9.0250000E-03    6.2502049E-15
  9.0600001E-03   -4.6504480E-15
  9.0950001E-03   -9.9405567E-15
  9.1300001E-03    2.4462765E-15
  9.1650002E-03    1.3941572E-14
  9.2000002E-03    1.9420990E-15
  9.2350002E-03   -1.7506670E-14
  9.2700003E-03   -9.0027829E-15
  9.3050003E-03    1.9476074E-14
  9.3400003E-03    1.8911293E-14
  9.3750004E-03   -1.8282088E-14
  9.4100004E-03   -3.1276485E-14
  9.4450004E-03    1.2059913E-14
  9.4799995E-03    4.4859725E-14
  9.5149996E-03    1.0950055E-15
  9.5499996E-03   -5.7321538E-14
  9.5849996E-03   -2.2694345E-14
  9.6199997E-03    6.5076010E-14
  9.6549997E-03    5.3246229E-14
  9.6899997E-03   -6.3357156E-14
  9.7249998E-03   -9.1507050E-14
  9.7599998E-03    4.6611871E-14
  9.7949998E-03    1.3369797E-13
  9.8299999E-03   -9.3192708E-15
  9.8649999E-03   -1.7285461E-13
  9.8999999E-03   -5.2708363E-14
  9.9350000E-03    1.9854937E-13
  9.9700000E-03    1.4057973E-13
  1.0005000E-02   -1.9726508E-13
  1.0040000E-02   -2.5029409E-13
  1.0075000E-02    1.5370570E-13
  1.0110000E-02    3.7075551E-13
  1.0145000E-02   -5.3252368E-14
  1.0180000E-02   -4.8232783E-13
  1.0215000E-02   -1.1439103E-13
  1.0250000E-02    5.5656152E-13
  1.0285000E-02    3.5057666E-13
  1.0320000E-02   -5.5778093E-13
  1.0355000E-02   -6.4268003E-13
  1.0390000E-02    4.4713826E-13
  1.0425000E-02    9.5961043E-13
  1.0460000E-02   -1.8945759E-13
  1.0495000E-02   -1.2491786E-12
  1.0530000E-02   -2.3729689E-13
  1.0565000E-02    1.4388464E-12
  1.0600000E-02    8.3081328E-13
  1.0635000E-02   -1.4413320E-12
  1.0670000E-02   -1.5531685E-12
  1.0705000E-02    1.1661196E-12
  1.0740000E-02    2.3220332E-12
  1.0775000E-02   -5.3706204E-13
  1.0810000E-02   -3.0074647E-12
  1.0845000E-02   -4.8509992E-13
  1.0880000E-02    3.4375107E-12
  1.0915000E-02    1.8780706E-12
  1.0950000E-02   -3.4152973E-12
  1.0985000E-02   -3.5357012E-12
  1.1020000E-02    2.7488227E-12
  1.1055000E-02    5.2539843E-12
  1.1090000E-02   -1.2923113E-12
  1.1125000E-02   -6.7318807E-12
  1.1160000E-02   -1.0051462E-12
  1.1195000E-02    7.5928196E-12
  1.1230000E-02    4.0512168E-12
  1.1265000E-02   -7.4304937E-12
  1.1300000E-02   -7.5727627E-12
  1.1335000E-02    5.8785450E-12
  1.1370000E-02    1.1101210E-11
  1.1405000E-02   -2.6983778E-12
  1.1440000E-02   -1.3992668E-11
  1.1475000E-02   -2.1268599E-12
  1.1510000E-02    1.5491282E-11
  1.1545000E-02    8.3099543E-12
  1.1580000E-02   -1.4837701E-11
  1.1615000E-02   -1.5210352E-11
  1.1650000E-02    1.1415378E-11
  1.1685000E-02    2.1839485E-11
  1.1720000E-02   -4.9168170E-12
  1.1755000E-02   -2.6937605E-11
  1.1790000E-02   -4.4983461E-12
  1.1825000E-02    2.9128987E-11
  1.1860000E-02    1.6088545E-11
  1.1895000E-02   -2.7148152E-11
  1.1930000E-02   -2.8496013E-11
  1.1965000E-02    2.0111815E-11
  1.2000000E-02    3.9824099E-11
  1.2035000E-02   -7.7937223E-12
  1.2070000E-02   -4.7842237E-11
  1.2105000E-02   -9.1529319E-12
  1.2140000E-02    5.0311880E-11
  1.2175000E-02    2.9085706E-11
  1.2210000E-02   -4.5398268E-11
  1.2245000E-02   -4.9425759E-11
  1.2280000E-02    3.2107522E-11
  1.2315000E-02    6.6903774E-11
  1.2350000E-02   -1.0667413E-11
  1.2385000E-02   -7.7995811E-11
  1.2420000E-02   -1.7237425E-11
  1.2455000E-02    7.9506492E-11
  1.2490000E-02    4.8457096E-11
  1.2525000E-02   -6.9213670E-11
  1.2560000E-02   -7.8644403E-11
  1.2595000E-02    4.6458878E-11
  1.2630000E-02    1.0280145E-10
  1.2665000E-02   -1.2554323E-11
  1.2700000E-02   -1.1604726E-10
  1.2735000E-02   -2.9105270E-11
  1.2770000E-02    1.1449430E-10
  1.2805000E-02    7.3296549E-11
  1.2840000E-02   -9.6083592E-11
  1.2875000E-02   -1.1359721E-10
  1.2910000E-02    6.1210675E-11
  1.2945000E-02    1.4332763E-10
  1.2980000E-02   -1.2989983E-11
  1.3015000E-02   -1.5666710E-10
  1.3050000E-02   -4.2944977E-11
  1.3085000E-02    1.4974769E-10
  1.3120000E-02    9.9121690E-11
  1.3155000E-02   -1.2151036E-10
  1.3190000E-02   -1.4730479E-10
  1.3225000E-02    7.4139757E-11
  1.3260000E-02    1.7979755E-10
  1.3295000E-02   -1.2968238E-11
  1.3330000E-02   -1.9074939E-10
  1.3365000E-02   -5.4170057E-11
  1.3400000E-02    1.7723768E-10
  1.3435000E-02    1.1805738E-10
  1.3470000E-02   -1.3991577E-10
  1.3505000E-02   -1.6951528E-10
  1.3540000E-02    8.3080584E-11
  1.3575000E-02    2.0088745E-10
  1.3610000E-02   -1.4120486E-11
  1.3645000E-02   -2.0731318E-10
  1.3680000E-02   -5.7568256E-11
  1.3715000E-02    1.8756492E-10
  1.3750000E-02    1.2200803E-10
  1.3785000E-02   -1.4432007E-10
  1.3820000E-02   -1.7017979E-10
  1.3855000E-02    8.3833121E-11
  1.3890000E-02    1.9545504E-10
  1.3925000E-02   -1.5046126E-11
  1.3960000E-02   -1.9471338E-10
  1.3995000E-02   -5.1766324E-11
  1.4030000E-02    1.6895495E-10
  1.4065000E-02    1.0663970E-10
  1.4100000E-02   -1.2326923E-10
  1.4135000E-02   -1.4160149E-10
  1.4170000E-02    6.6123655E-11
  1.4205000E-02    1.5212051E-10
  1.4240000E-02   -8.0489330E-12
  1.4275000E-02   -1.3809349E-10
  1.4310000E-02   -4.0130271E-11
  1.4345000E-02    1.0418834E-10
  1.4380000E-02    6.9330937E-11
  1.4415000E-02   -5.9379564E-11
  1.4450000E-02   -7.4244083E-11
  1.4485000E-02    1.5554219E-11
  1.4520000E-02    5.4961969E-11
  1.4555000E-02    1.4778019E-11
  1.4590000E-02   -1.7712885E-11
  1.4625000E-02   -2.1364731E-11
  1.4660000E-02   -2.5704845E-11
  1.4695000E-02   -8.9103697E-13
  1.4730000E-02    5.9940657E-11
  1.4765000E-02    4.9716786E-11
  1.4800000E-02   -6.9383409E-11
  1.4835000E-02   -1.1462064E-10
  1.4870000E-02    4.2220741E-11
  1.4905000E-02    1.7793877E-10
  1.4940000E-02    2.5554378E-11
  1.4975000E-02   -2.1801347E-10
  1.5010000E-02   -1.2727919E-10
  1.5045000E-02    2.1420475E-10
  1.5080000E-02    2.4501584E-10
  1.5115000E-02   -1.5276819E-10
  1.5150000E-02   -3.5194306E-10
  1.5185000E-02    3.2079169E-11
  1.5220000E-02    4.1769913E-10
  1.5255000E-02    1.3443553E-10
  1.5290000E-02   -4.1572110E-10
  1.5325000E-02   -3.1890524E-10
  1.5360000E-02    3.3089176E-10
  1.5395000E-02    4.8361420E-10
  1.5430000E-02   -1.6544105E-10
  1.5465000E-02   -5.8901717E-10
  1.5500000E-02   -5.8839864E-11
  1.5535000E-02    6.0350913E-10
  1.5570000E-02    3.0330671E-10
  1.5605000E-02   -5.1245674E-10
  1.5640000E-02   -5.2006721E-10
  1.5675001E-02    3.2378267E-10
  1.5710000E-02    6.6290551E-10
  1.5745001E-02   -6.8134443E-11
  1.5780000E-02   -6.9877282E-10
  1.5814999E-02   -2.0687184E-10
  1.5850000E-02    6.1674948E-10
  1.5884999E-02    4.4721471E-10
  1.5920000E-02   -4.3190879E-10
  1.5954999E-02   -6.0539784E-10
  1.5990000E-02    1.8262959E-10
  1.6024999E-02    6.5243433E-10
  1.6060000E-02    7.8484733E-11
  1.6094999E-02   -5.8537164E-10
  1.6130000E-02   -2.9795172E-10
  1.6164999E-02    4.2775566E-10
  1.6200000E-02    4.3515244E-10
  1.6235000E-02   -2.2265872E-10
  1.6270000E-02   -4.7223558E-10
  1.6305000E-02    2.0486770E-11
  1.6340001E-02    4.1737552E-10
  1.6375000E-02    1.3469714E-10
  1.6410001E-02   -3.0079672E-10
  1.6445000E-02   -2.1656700E-10
  1.6480001E-02    1.6481100E-10
  1.6515000E-02    2.2252251E-10
  1.6550001E-02   -5.0656365E-11
  1.6585000E-02   -1.7244516E-10
  1.6620001E-02   -1.3970745E-11
  1.6655000E-02    1.0038087E-10
  1.6690001E-02    2.2599285E-11
  1.6725000E-02   -4.1656508E-11
  1.6759999E-02    1.0220231E-11
  1.6795000E-02    2.0452232E-11
  1.6829999E-02   -5.6652530E-11
  1.6865000E-02   -4.2666572E-11
  1.6899999E-02    8.7041992E-11
  1.6935000E-02    9.5788467E-11
  1.6969999E-02   -8.1062344E-11
  1.7005000E-02   -1.5571028E-10
  1.7039999E-02    3.3770663E-11
  1.7075000E-02    1.9639010E-10
  1.7109999E-02    4.4572790E-11
  1.7145000E-02   -1.9778137E-10
  1.7180000E-02   -1.3146435E-10
  1.7215000E-02    1.5369526E-10
  1.7250000E-02    2.0130152E-10
  1.7285001E-02   -7.2857095E-11
  1.7320000E-02   -2.3451632E-10
  1.7355001E-02   -2.6515207E-11
  1.7390000E-02    2.2023509E-10
  1.7425001E-02    1.1845200E-10
  1.7460000E-02   -1.6484439E-10
  1.7495001E-02   -1.8466345E-10
  1.7530000E-02    8.1529866E-11
  1.7565001E-02    2.1470303E-10
  1.7600000E-02    1.5905475E-11
  1.7635001E-02   -1.9810724E-10
  1.7670000E-02   -9.9106078E-11
  1.7704999E-02    1.5195334E-10
  1.7740000E-02    1.6657768E-10
  1.7774999E-02   -7.2831408E-11
  1.7810000E-02   -1.9500869E-10
  1.7844999E-02   -1.5112731E-11
  1.7880000E-02    1.8328056E-10
  1.7914999E-02    8.8773024E-11
  1.7950000E-02   -1.5471457E-10
  1.7984999E-02   -1.7197066E-10
  1.8020000E-02    5.5153132E-11
  1.8054999E-02    1.5631274E-10
  1.8090000E-02   -4.3422183E-11
  1.8124999E-02   -2.4589300E-10
  1.8160000E-02   -1.5805354E-10
  1.8195000E-02    3.5400339E-11
  1.8230001E-02   -3.0203409E-11
  1.8265000E-02   -3.1108494E-10
  1.8300001E-02   -4.3448806E-10
  1.8335000E-02   -3.1403463E-10
  1.8370001E-02   -2.8872088E-10
  1.8405000E-02   -5.6289873E-10
  1.8440001E-02   -8.8037450E-10
  1.8475000E-02   -9.6636132E-10
  1.8510001E-02   -9.8964648E-10
  1.8545000E-02   -1.2794100E-09
  1.8580001E-02   -1.7896908E-09
  1.8615000E-02   -2.2104456E-09
  1.8650001E-02   -2.5140063E-09
  1.8685000E-02   -3.0052680E-09
  1.8719999E-02   -3.8192223E-09
  1.8755000E-02   -4.7445701E-09
  1.8789999E-02   -5.6488774E-09
  1.8825000E-02   -6.7340711E-09
  1.8859999E-02   -8.1952161E-09
  1.8895000E-02   -9.9335713E-09
  1.8929999E-02   -1.1840538E-08
  1.8965000E-02   -1.4095623E-08
  1.8999999E-02   -1.6904128E-08
  1.9035000E-02   -2.0182950E-08
  1.9069999E-02   -2.3840293E-08
  1.9105000E-02   -2.8155890E-08
  1.9140000E-02   -3.3489187E-08
  1.9175000E-02   -3.9780755E-08
  1.9210000E-02   -4.6813042E-08
  1.9245001E-02   -5.4869702E-08
  1.9280000E-02   -6.4602588E-08
  1.9315001E-02   -7.6237363E-08
  1.9350000E-02   -8.9487116E-08
  1.9385001E-02   -1.0439908E-07
  1.9420000E-02   -1.2172927E-07
  1.9455001E-02   -1.4220721E-07
  1.9490000E-02   -1.6592981E-07
  1.9525001E-02   -1.9286662E-07
  1.9560000E-02   -2.2358374E-07
  1.9595001E-02   -2.5905297E-07
  1.9630000E-02   -3.0002931E-07
  1.9664999E-02   -3.4702762E-07
  1.9700000E-02   -4.0071544E-07
  1.9734999E-02   -4.6198133E-07
  1.9770000E-02   -5.3182174E-07
  1.9804999E-02   -6.1148927E-07
  1.9840000E-02   -7.0250985E-07
  1.9874999E-02   -8.0620697E-07
  1.9910000E-02   -9.2354469E-07
  1.9944999E-02   -1.0559498E-06
  1.9980000E-02   -1.2059741E-06
  2.0014999E-02   -1.3764469E-06
  2.0050000E-02   -1.5692137E-06
  2.0085000E-02   -1.7856954E-06
  2.0120000E-02   -2.0287744E-06
  2.0155000E-02   -2.3030216E-06
  2.0190001E-02   -2.6125765E-06
  2.0225000E-02   -2.9599537E-06
  2.0260001E-02   -3.3479896E-06
  2.0295000E-02   -3.7820944E-06
  2.0330001E-02   -4.2690986E-06
  2.0365000E-02   -4.8143152E-06
  2.0400001E-02   -5.4216212E-06
  2.0435000E-02   -6.0967209E-06
  2.0470001E-02   -6.8484328E-06
  2.0505000E-02   -7.6858387E-06
  2.0540001E-02   -8.6159562E-06
  2.0575000E-02   -9.6458662E-06
  2.0609999E-02   -1.0785928E-05
  2.0645000E-02   -1.2048842E-05
  2.0679999E-02   -1.3446229E-05
  2.0715000E-02   -1.4988499E-05
  2.0749999E-02   -1.6688140E-05
  2.0785000E-02   -1.8560933E-05
  2.0819999E-02   -2.0623303E-05
  2.0855000E-02   -2.2890494E-05
  2.0889999E-02   -2.5378526E-05
  2.0925000E-02   -2.8106479E-05
  2.0959999E-02   -3.1095540E-05
  2.0995000E-02   -3.4366803E-05
  2.1029999E-02   -3.7941663E-05
  2.1065000E-02   -4.1843814E-05
  2.1100000E-02   -4.6099613E-05
  2.1135001E-02   -5.0736566E-05
  2.1170000E-02   -5.5782773E-05
  2.1205001E-02   -6.1268060E-05
  2.1240000E-02   -6.7224639E-05
  2.1275001E-02   -7.3686431E-05
  2.1310000E-02   -8.0688435E-05
  2.1345001E-02   -8.8267145E-05
  2.1380000E-02   -9.6461299E-05
  2.1415001E-02   -1.0531152E-04
  2.1450000E-02   -1.1485959E-04
  2.1485001E-02   -1.2514878E-04
  2.1520000E-02   -1.3622481E-04
  2.1555001E-02   -1.4813557E-04
  2.1590000E-02   -1.6093027E-04
  2.1624999E-02   -1.7465913E-04
  2.1660000E-02   -1.8937442E-04
  2.1694999E-02   -2.0513099E-04
  2.1730000E-02   -2.2198507E-04
  2.1764999E-02   -2.3999313E-04
  2.1800000E-02   -2.5921265E-04
  2.1834999E-02   -2.7970321E-04
  2.1870000E-02   -3.0152567E-04
  2.1904999E-02   -3.2474089E-04
  2.1940000E-02   -3.4940991E-04
  2.1974999E-02   -3.7559468E-04
  2.2010000E-02   -4.0335787E-04
  2.2045000E-02   -4.3276200E-04
  2.2080000E-02   -4.6386931E-04
  2.2115000E-02   -4.9674197E-04
  2.2150001E-02   -5.3144112E-04
  2.2185000E-02   -5.6802673E-04
  2.2220001E-02   -6.0655776E-04
  2.2255000E-02   -6.4709206E-04
  2.2290001E-02   -6.8968494E-04
  2.2325000E-02   -7.3438813E-04
  2.2360001E-02   -7.8125019E-04
  2.2395000E-02   -8.3031738E-04
  2.2430001E-02   -8.8163326E-04
  2.2465000E-02   -9.3523524E-04
  2.2500001E-02   -9.9115481E-04
  2.2535000E-02   -1.0494194E-03
  2.2569999E-02   -1.1100523E-03
  2.2605000E-02   -1.1730713E-03
  2.2639999E-02   -1.2384848E-03
  2.2675000E-02   -1.3062930E-03
  2.2709999E-02   -1.3764903E-03
  2.2745000E-02   -1.4490647E-03
  2.2779999E-02   -1.5239944E-03
  2.2815000E-02   -1.6012453E-03
  2.2849999E-02   -1.6807733E-03
  2.2885000E-02   -1.7625265E-03
  2.2919999E-02   -1.8464416E-03
  2.2955000E-02   -1.9324430E-03
  2.2990000E-02   -2.0204424E-03
  2.3025000E-02   -2.1103395E-03
  2.3060000E-02   -2.2020217E-03
  2.3095001E-02   -2.2953635E-03
  2.3130000E-02   -2.3902257E-03
  2.3165001E-02   -2.4864541E-03
  2.3200000E-02   -2.5838807E-03
  2.3235001E-02   -2.6823247E-03
  2.3270000E-02   -2.7815907E-03
  2.3305001E-02   -2.8814659E-03
  2.3340000E-02   -2.9817242E-03
  2.3375001E-02   -3.0821264E-03
  2.3410000E-02   -3.1824177E-03
  2.3445001E-02   -3.2823274E-03
  2.3480000E-02   -3.3815703E-03
  2.3514999E-02   -3.4798488E-03
  2.3550000E-02   -3.5768540E-03
  2.3584999E-02   -3.6722606E-03
  2.3620000E-02   -3.7657297E-03
  2.3654999E-02   -3.8569137E-03
  2.3690000E-02   -3.9454526E-03
  2.3724999E-02   -4.0309741E-03
  2.3760000E-02   -4.1130995E-03
  2.3794999E-02   -4.1914424E-03
  2.3830000E-02   -4.2656059E-03
  2.3864999E-02   -4.3351878E-03
  2.3900000E-02   -4.3997825E-03
  2.3934999E-02   -4.4589802E-03
  2.3970000E-02   -4.5123720E-03
  2.4005000E-02   -4.5595467E-03
  2.4040001E-02   -4.6000932E-03
  2.4075000E-02   -4.6336041E-03
  2.4110001E-02   -4.6596797E-03
  2.4145000E-02   -4.6779211E-03
  2.4180001E-02   -4.6879398E-03
  2.4215000E-02   -4.6893647E-03
  2.4250001E-02   -4.6818363E-03
  2.4285000E-02   -4.6650022E-03
  2.4320001E-02   -4.6385275E-03
  2.4355000E-02   -4.6020993E-03
  2.4390001E-02   -4.5554284E-03
  2.4425000E-02   -4.4982489E-03
  2.4460001E-02   -4.4303196E-03
  2.4495000E-02   -4.3514241E-03
  2.4529999E-02   -4.2613759E-03
  2.4565000E-02   -4.1600177E-03
  2.4599999E-02   -4.0472308E-03
  2.4635000E-02   -3.9229332E-03
  2.4669999E-02   -3.7870773E-03
  2.4705000E-02   -3.6396491E-03
  2.4739999E-02   -3.4806787E-03
  2.4775000E-02   -3.3102424E-03
  2.4809999E-02   -3.1284557E-03
  2.4845000E-02   -2.9354761E-03
  2.4879999E-02   -2.7315065E-03
  2.4915000E-02   -2.5168015E-03
  2.4950000E-02   -2.2916619E-03
  2.4985000E-02   -2.0564313E-03
  2.5020000E-02   -1.8114973E-03
  2.5055001E-02   -1.5572984E-03
  2.5090000E-02   -1.2943255E-03
  2.5125001E-02   -1.0231133E-03
  2.5160000E-02   -7.4423657E-04
  2.5195001E-02   -4.5831728E-04
  2.5230000E-02   -1.6602640E-04
  2.5265001E-02    1.3192587E-04
  2.5300000E-02    4.3479231E-04
  2.5335001E-02    7.4178365E-04
  2.5370000E-02    1.0520738E-03
  2.5405001E-02    1.3648075E-03
  2.5440000E-02    1.6790951E-03
  2.5474999E-02    1.9940143E-03
  2.5510000E-02    2.3086222E-03
  2.5544999E-02    2.6219625E-03
  2.5580000E-02    2.9330554E-03
  2.5614999E-02    3.2408996E-03
  2.5650000E-02    3.5444847E-03
  2.5684999E-02    3.8428023E-03
  2.5720000E-02    4.1348459E-03
  2.5754999E-02    4.4196048E-03
  2.5790000E-02    4.6960674E-03
  2.5824999E-02    4.9632424E-03
  2.5860000E-02    5.2201655E-03
  2.5895000E-02    5.4658875E-03
  2.5930000E-02    5.6994748E-03
  2.5965000E-02    5.9200306E-03
  2.6000001E-02    6.1267046E-03
  2.6035000E-02    6.3186842E-03
  2.6070001E-02    6.4951908E-03
  2.6105000E-02    6.6554979E-03
  2.6140001E-02    6.7989421E-03
  2.6175000E-02    6.9249137E-03
  2.6210001E-02    7.0328629E-03
  2.6245000E-02    7.1223113E-03
  2.6280001E-02    7.1928450E-03
  2.6315000E-02    7.2441222E-03
  2.6350001E-02    7.2758724E-03
  2.6385000E-02    7.2879097E-03
  2.6419999E-02    7.2801290E-03
  2.6455000E-02    7.2525060E-03
  2.6489999E-02    7.2050951E-03
  2.6525000E-02    7.1380353E-03
  2.6559999E-02    7.0515522E-03
  2.6595000E-02    6.9459570E-03
  2.6629999E-02    6.8216468E-03
  2.6665000E-02    6.6790958E-03
  2.6699999E-02    6.5188617E-03
  2.6735000E-02    6.3415891E-03
  2.6769999E-02    6.1480012E-03
  2.6805000E-02    5.9388876E-03
  2.6839999E-02    5.7151099E-03
  2.6875000E-02    5.4776077E-03
  2.6910000E-02    5.2273874E-03
  2.6945001E-02    4.9655074E-03
  2.6980000E-02    4.6930797E-03