 -4.8000002E-03    1.0000000E-24
 -4.7650002E-03    1.0000002E-24
 -4.7300002E-03    1.0000001E-24
 -4.6950001E-03    1.0000000E-24
 -4.6600001E-03    1.0000003E-24
 -4.6250001E-03    1.0000002E-24
 -4.5900000E-03    9.9999992E-25
 -4.5550000E-03    1.0000002E-24
 -4.5200000E-03    1.0000000E-24
 -4.4849999E-03    9.9999992E-25
 -4.4499999E-03    1.0000002E-24
 -4.4149999E-03    1.0000003E-24
 -4.3799998E-03    9.9999953E-25
 -4.3449998E-03    9.9999972E-25
 -4.3100002E-03    1.0000007E-24
 -4.2750002E-03    1.0000002E-24
 -4.2400002E-03    9.9999982E-25
 -4.2050001E-03    1.0000006E-24
 -4.1700001E-03    1.0000006E-24
 -4.1350001E-03    9.9999943E-25
 -4.1000000E-03    9.9999953E-25
 -4.0650000E-03    1.0000004E-24
 -4.0300000E-03    1.0000001E-24
 -3.9949999E-03    9.9999963E-25
 -3.9599999E-03    1.0000005E-24
 -3.9249999E-03    1.0000007E-24
 -3.8900001E-03    9.9999953E-25
 -3.8550000E-03    9.9999972E-25
 -3.8200000E-03    1.0000005E-24
 -3.7849999E-03    1.0000002E-24
 -3.7499999E-03    9.9999972E-25
 -3.7150001E-03    1.0000005E-24
 -3.6800001E-03    1.0000007E-24
 -3.6450000E-03    9.9999972E-25
 -3.6100000E-03    9.9999953E-25
 -3.5750000E-03    9.9999992E-25
 -3.5399999E-03    9.9999992E-25
 -3.5049999E-03    1.0000000E-24
 -3.4700001E-03    1.0000006E-24
 -3.4350001E-03    1.0000005E-24
 -3.4000000E-03    1.0000002E-24
 -3.3650000E-03    9.9999992E-25
 -3.3300000E-03    9.9999992E-25
 -3.2949999E-03    9.9999972E-25
 -3.2599999E-03    9.9999992E-25
 -3.2250001E-03    1.0000004E-24
 -3.1900001E-03    1.0000002E-24
 -3.1550000E-03    9.9999992E-25
 -3.1200000E-03    1.0000002E-24
 -3.0850000E-03    1.0000004E-24
 -3.0499999E-03    9.9999982E-25
 -3.0149999E-03    9.9999982E-25
 -2.9800001E-03    1.0000005E-24
 -2.9450001E-03    1.0000002E-24
 -2.9100000E-03    9.9999992E-25
 -2.8750000E-03    1.0000001E-24
 -2.8400000E-03    1.0000002E-24
 -2.8049999E-03    1.0000001E-24
 -2.7699999E-03    1.0000002E-24
 -2.7350001E-03    1.0000005E-24
 -2.7000001E-03    1.0000002E-24
 -2.6650000E-03    9.9999982E-25
 -2.6300000E-03    9.9999992E-25
 -2.5950000E-03    1.0000002E-24
 -2.5599999E-03    1.0000003E-24
 -2.5249999E-03    9.9999982E-25
 -2.4900001E-03    9.9999972E-25
 -2.4550001E-03    1.0000003E-24
 -2.4200000E-03    1.0000008E-24
 -2.3850000E-03    1.0000005E-24
 -2.3500000E-03    1.0000000E-24
 -2.3149999E-03    9.9999943E-25
 -2.2799999E-03    9.9999893E-25
 -2.2450001E-03    9.9999943E-25
 -2.2100001E-03    1.0000005E-24
 -2.1750000E-03    1.0000008E-24
 -2.1400000E-03    1.0000004E-24
 -2.1050000E-03    1.0000003E-24
 -2.0699999E-03    1.0000007E-24
 -2.0349999E-03    1.0000002E-24
 -2.0000001E-03    9.9999923E-25
 -1.9650001E-03    1.0000000E-24
 -1.9300000E-03    1.0000008E-24
 -1.8950000E-03    9.9999992E-25
 -1.8600000E-03    9.9999933E-25
 -1.8250000E-03    1.0000001E-24
 -1.7900000E-03    1.0000005E-24
 -1.7550000E-03    1.0000000E-24
 -1.7199999E-03    1.0000002E-24
 -1.6850000E-03    1.0000009E-24
 -1.6500000E-03    1.0000003E-24
 -1.6150000E-03    9.9999923E-25
 -1.5800000E-03    9.9999893E-25
 -1.5450000E-03    9.9999953E-25
 -1.5100000E-03    1.0000005E-24
 -1.4750001E-03    1.0000002E-24
 -1.4400000E-03    9.9999972E-25
 -1.4050000E-03    1.0000000E-24
 -1.3700000E-03    1.0000008E-24
 -1.3350000E-03    1.0000007E-24
 -1.3000000E-03    9.9999992E-25
 -1.2650000E-03    1.0000000E-24
 -1.2300001E-03    1.0000003E-24
 -1.1950000E-03    1.0000000E-24
 -1.1600000E-03    9.9999953E-25
 -1.1250000E-03    9.9999943E-25
 -1.0900000E-03    1.0000005E-24
 -1.0550000E-03    1.0000011E-24
 -1.0200000E-03    9.9999992E-25
 -9.8500005E-04    9.9999953E-25
 -9.5000002E-04    1.0000005E-24
 -9.1499998E-04    1.0000005E-24
 -8.8000001E-04    1.0000000E-24
 -8.4499997E-04    9.9999972E-25
 -8.1000000E-04    9.9999972E-25
 -7.7500002E-04    1.0000001E-24
 -7.3999999E-04    1.0000003E-24
 -7.0500001E-04    9.9999943E-25
 -6.6999998E-04    9.9999972E-25
 -6.3500000E-04    1.0000007E-24
 -6.0000003E-04    1.0000001E-24
 -5.6499999E-04    9.9999923E-25
 -5.3000002E-04    1.0000006E-24
 -4.9499999E-04    1.0000015E-24
 -4.6000001E-04    9.9999992E-25
 -4.2500001E-04    9.9999933E-25
 -3.9000000E-04    1.0000002E-24
 -3.5500000E-04    1.0000002E-24
 -3.1999999E-04    1.0000001E-24
 -2.8499999E-04    9.9999982E-25
 -2.5000001E-04    9.9999992E-25
 -2.1499999E-04    1.0000000E-24
 -1.8000000E-04    9.9999913E-25
 -1.4500000E-04    9.9999903E-25
 -1.1000000E-04    1.0000000E-24
 -7.5000004E-05    1.0000007E-24
 -3.9999999E-05    1.0000015E-24
 -4.9999999E-06    1.0000012E-24
  2.9999999E-05    1.0000003E-24
  6.5000000E-05    9.9999953E-25
  9.9999997E-05    9.9999933E-25
  1.3499999E-04    9.9999893E-25
  1.7000000E-04    9.9999913E-25
  2.0500000E-04    1.0000003E-24
  2.3999999E-04    1.0000006E-24
  2.7500000E-04    1.0000008E-24
  3.1000000E-04    1.0000011E-24
  3.4500001E-04    1.0000006E-24
  3.8000001E-04    9.9999972E-25
  4.1499999E-04    9.9999943E-25
  4.4999999E-04    9.9999963E-25
  4.8500000E-04    9.9999982E-25
  5.2000000E-04    1.0000002E-24
  5.5499998E-04    1.0000009E-24
  5.9000001E-04    1.0000007E-24
  6.2499999E-04    1.0000003E-24
  6.6000002E-04    9.9999972E-25
  6.9500000E-04    9.9999893E-25
  7.3000003E-04    9.9999972E-25
  7.6500000E-04    1.0000005E-24
  7.9999998E-04    9.9999953E-25
  8.3500001E-04    1.0000002E-24
  8.6999999E-04    1.0000016E-24
  9.0500002E-04    1.0000006E-24
  9.4000000E-04    9.9999854E-25
  9.7499997E-04    9.9999923E-25
  1.0100000E-03    1.0000006E-24
  1.0450000E-03    9.9999923E-25
  1.0800000E-03    9.9999953E-25
  1.1150000E-03    1.0000023E-24
  1.1500000E-03    1.0000011E-24
  1.1849999E-03    9.9999884E-25
  1.2200000E-03    1.0000007E-24
  1.2550000E-03    1.0000011E-24
  1.2900000E-03    9.9999844E-25
  1.3250000E-03    9.9999923E-25
  1.3600000E-03    1.0000019E-24
  1.3950000E-03    1.0000002E-24
  1.4299999E-03    9.9999795E-25
  1.4650000E-03    1.0000000E-24
  1.5000000E-03    1.0000013E-24
  1.5350000E-03    9.9999943E-25
  1.5700000E-03    9.9999982E-25
  1.6050000E-03    1.0000019E-24
  1.6400000E-03    1.0000006E-24
  1.6749999E-03    9.9999854E-25
  1.7100000E-03    1.0000001E-24
  1.7450000E-03    1.0000020E-24
  1.7800000E-03    1.0000001E-24
  1.8150000E-03    9.9999874E-25
  1.8500000E-03    1.0000004E-24
  1.8850000E-03    1.0000009E-24
  1.9200000E-03    9.9999972E-25
  1.9550000E-03    1.0000006E-24
  1.9900000E-03    1.0000013E-24
  2.0250001E-03    9.9999923E-25
  2.0600001E-03    9.9999893E-25
  2.0949999E-03    9.9999982E-25
  2.1299999E-03    9.9999824E-25
  2.1650000E-03    9.9999864E-25
  2.2000000E-03    1.0000030E-24
  2.2350000E-03    1.0000027E-24
  2.2700001E-03    9.9999834E-25
  2.3050001E-03    9.9999972E-25
  2.3399999E-03    1.0000019E-24
  2.3749999E-03    9.9999815E-25
  2.4100000E-03    9.9999716E-25
  2.4450000E-03    1.0000022E-24
  2.4800000E-03    1.0000024E-24
  2.5150001E-03    9.9999864E-25
  2.5500001E-03    1.0000001E-24
  2.5849999E-03    1.0000016E-24
  2.6199999E-03    9.9999824E-25
  2.6550000E-03    9.9999746E-25
  2.6900000E-03    1.0000003E-24
  2.7250000E-03    1.0000005E-24
  2.7600001E-03    1.0000000E-24
  2.7950001E-03    1.0000018E-24
  2.8299999E-03    1.0000016E-24
  2.8649999E-03    9.9999953E-25
  2.9000000E-03    1.0000001E-24
  2.9350000E-03    1.0000004E-24
  2.9700000E-03    9.9999903E-25
  3.0050001E-03    9.9999963E-25
  3.0400001E-03    1.0000018E-24
  3.0749999E-03    1.0000008E-24
  3.1099999E-03    9.9999844E-25
  3.1450000E-03    9.9999972E-25
  3.1800000E-03    1.0000013E-24
  3.2150000E-03    9.9999893E-25
  3.2500001E-03    9.9999815E-25
  3.2850001E-03    1.0000015E-24
  3.3199999E-03    1.0000025E-24
  3.3549999E-03    9.9999963E-25
  3.3900000E-03    9.9999992E-25
  3.4250000E-03    1.0000016E-24
  3.4600000E-03    9.9999982E-25
  3.4950001E-03    9.9999795E-25
  3.5300001E-03    1.0000000E-24
  3.5649999E-03    1.0000007E-24
  3.5999999E-03    9.9999874E-25
  3.6350000E-03    1.0000000E-24
  3.6700000E-03    1.0000015E-24
  3.7050000E-03    1.0000001E-24
  3.7400001E-03    1.0000000E-24
  3.7750001E-03    1.0000013E-24
  3.8099999E-03    9.9999963E-25
  3.8449999E-03    9.9999795E-25
  3.8800000E-03    1.0000016E-24
  3.9149998E-03    1.0000033E-24
  3.9499998E-03    9.9999933E-25
  3.9849998E-03    9.9999844E-25
  4.0199999E-03    1.0000009E-24
  4.0549999E-03    9.9999992E-25
  4.0899999E-03    9.9999795E-25
  4.1250000E-03    9.9999982E-25
  4.1600000E-03    1.0000019E-24
  4.1950000E-03    9.9999992E-25
  4.2300001E-03    9.9999874E-25
  4.2650001E-03    1.0000012E-24
  4.3000001E-03    1.0000016E-24
  4.3350002E-03    9.9999893E-25
  4.3700002E-03    9.9999834E-25
  4.4049998E-03    1.0000007E-24
  4.4399998E-03    1.0000006E-24
  4.4749998E-03    9.9999972E-25
  4.5099999E-03    1.0000008E-24
  4.5449999E-03    1.0000003E-24
  4.5799999E-03    9.9999903E-25
  4.6150000E-03    9.9999992E-25
  4.6500000E-03    1.0000003E-24
  4.6850001E-03    9.9999933E-25
  4.7200001E-03    1.0000004E-24
  4.7550001E-03    1.0000016E-24
  4.7900002E-03    1.0000000E-24
  4.8250002E-03    9.9999903E-25
  4.8600002E-03    1.0000009E-24
  4.8949998E-03    1.0000008E-24
  4.9299998E-03    9.9999953E-25
  4.9649999E-03    1.0000008E-24
  4.9999999E-03    1.0000014E-24
  5.0349999E-03    9.9999903E-25
  5.0700000E-03    9.9999824E-25
  5.1050000E-03    9.9999992E-25
  5.1400000E-03    1.0000006E-24
  5.1750001E-03    9.9999933E-25
  5.2100001E-03    9.9999923E-25
  5.2450001E-03    1.0000016E-24
  5.2800002E-03    1.0000020E-24
  5.3150002E-03    9.9999893E-25
  5.3500002E-03    9.9999815E-25
  5.3849998E-03    1.0000009E-24
  5.4199998E-03    1.0000007E-24
  5.4549999E-03    9.9999805E-25
  5.4899999E-03    9.9999953E-25
  5.5249999E-03    1.0000025E-24
  5.5600000E-03    1.0000010E-24
  5.5950000E-03    9.9999903E-25
  5.6300000E-03    1.0000007E-24
  5.6650001E-03    1.0000014E-24
  5.7000001E-03    9.9999844E-25
  5.7350001E-03    9.9999765E-25
  5.7700002E-03    1.0000008E-24
  5.8050002E-03    1.0000016E-24
  5.8400002E-03    9.9999923E-25
  5.8749998E-03    9.9999933E-25
  5.9099998E-03    1.0000016E-24
  5.9449999E-03    1.0000002E-24
  5.9799999E-03    9.9999864E-25
  6.0149999E-03    1.0000000E-24
  6.0500000E-03    1.0000003E-24
  6.0850000E-03    9.9999923E-25
  6.1200000E-03    1.0000005E-24
  6.1550001E-03    1.0000015E-24
  6.1900001E-03    1.0000000E-24
  6.2250001E-03    9.9999933E-25
  6.2600002E-03    1.0000002E-24
  6.2950002E-03    9.9999953E-25
  6.3299998E-03    9.9999933E-25
  6.3649998E-03    1.0000012E-24
  6.3999998E-03    1.0000010E-24
  6.4349999E-03    9.9999953E-25
  6.4699999E-03    9.9999913E-25
  6.5049999E-03    9.9999972E-25
  6.5400000E-03    1.0000000E-24
  6.5750000E-03    9.9999992E-25
  6.6100000E-03    1.0000012E-24
  6.6450001E-03    1.0000017E-24
  6.6800001E-03    9.9999953E-25
  6.7150001E-03    9.9999844E-25
  6.7500002E-03    9.9999992E-25
  6.7850002E-03    9.9999982E-25
  6.8199998E-03    9.9999834E-25
  6.8549998E-03    1.0000002E-24
  6.8899998E-03    1.0000019E-24
  6.9249999E-03    1.0000007E-24
  6.9599999E-03    1.0000010E-24
  6.9949999E-03    1.0000022E-24
  7.0300000E-03    1.0000002E-24
  7.0650000E-03    9.9999903E-25
  7.1000000E-03    1.0000005E-24
  7.1350001E-03    9.9999963E-25
  7.1700001E-03    9.9999815E-25
  7.2050001E-03    1.0000005E-24
  7.2400002E-03    1.0000020E-24
  7.2750002E-03    9.9999943E-25
  7.3099998E-03    9.9999884E-25
  7.3449998E-03    1.0000004E-24
  7.3799998E-03    9.9999923E-25
  7.4149999E-03    9.9999834E-25
  7.4499999E-03    1.0000017E-24
  7.4850000E-03    1.0000030E-24
  7.5200000E-03    9.9999884E-25
  7.5550000E-03    9.9999765E-25
  7.5900001E-03    1.0000011E-24
  7.6250001E-03    1.0000014E-24
  7.6600001E-03    9.9999844E-25
  7.6950002E-03    9.9999963E-25
  7.7300002E-03    1.0000022E-24
  7.7650002E-03    9.9999992E-25
  7.7999998E-03    9.9999824E-25
  7.8349998E-03    1.0000006E-24
  7.8699999E-03    1.0000010E-24
  7.9049999E-03    9.9999903E-25
  7.9399999E-03    1.0000001E-24
  7.9750000E-03    1.0000012E-24
  8.0100000E-03    9.9999963E-25
  8.0450000E-03    9.9999933E-25
  8.0800001E-03    1.0000003E-24
  8.1150001E-03    9.9999982E-25
  8.1500001E-03    1.0000005E-24
  8.1850002E-03    1.0000015E-24
  8.2200002E-03    9.9999972E-25
  8.2550002E-03    9.9999834E-25
  8.2900003E-03    1.0000006E-24
  8.3250003E-03    1.0000018E-24
  8.3600003E-03    9.9999982E-25
  8.3950004E-03    9.9999943E-25
  8.4300004E-03    1.0000009E-24
  8.4650004E-03    1.0000007E-24
  8.5000005E-03    9.9999903E-25
  8.5349996E-03    9.9999854E-25
  8.5699996E-03    1.0000000E-24
  8.6049996E-03    1.0000009E-24
  8.6399997E-03    9.9999963E-25
  8.6749997E-03    1.0000002E-24
  8.7099997E-03    1.0000021E-24
  8.7449998E-03    1.0000003E-24
  8.7799998E-03    9.9999874E-25
  8.8149998E-03    1.0000001E-24
  8.8499999E-03    1.0000001E-24
  8.8849999E-03    9.9999923E-25
  8.9199999E-03    1.0000006E-24
  8.9550000E-03    1.0000003E-24
  8.9900000E-03    9.9999874E-25
  9.0250000E-03    1.0000005E-24
  9.0600001E-03    1.0000016E-24
  9.0950001E-03    1.0000002E-24
  9.1300001E-03    1.0000011E-24
  9.1650002E-03    1.0000012E-24
  9.2000002E-03    9.9999795E-25
  9.2350002E-03    9.9999795E-25
  9.2700003E-03    9.9999982E-25
  9.3050003E-03    9.9999953E-25
  9.3400003E-03    1.0000005E-24
  9.3750004E-03    1.0000016E-24
  9.4100004E-03    9.9999943E-25
  9.4450004E-03    9.9999923E-25
  9.4799995E-03    1.0000013E-24
  9.5149996E-03    9.9999953E-25
  9.5499996E-03    9.9999864E-25
  9.5849996E-03    1.0000016E-24
  9.6199997E-03    1.0000017E-24
  9.6549997E-03    1.0000001E-24
  9.6899997E-03    1.0000019E-24
  9.7249998E-03    1.0000021E-24
  9.7599998E-03    9.9999874E-25
  9.7949998E-03    9.9999805E-25
  9.8299999E-03    1.0000000E-24
  9.8649999E-03    1.0000001E-24
  9.8999999E-03    9.9999943E-25
  9.9350000E-03    1.0000003E-24
  9.9700000E-03    1.0000012E-24
  1.0005000E-02    1.0000008E-24
  1.0040000E-02    9.9999913E-25
  1.0075000E-02    9.9999933E-25
  1.0110000E-02    1.0000004E-24
  1.0145000E-02    9.9999953E-25
  1.0180000E-02    9.9999933E-25
  1.0215000E-02    1.0000024E-24
  1.0250000E-02    1.0000018E-24
  1.0285000E-02    9.9999903E-25
  1.0320000E-02    9.9999972E-25
  1.0355000E-02    9.9999982E-25
  1.0390000E-02    9.9999844E-25
  1.0425000E-02    1.0000002E-24
  1.0460000E-02    1.0000013E-24
  1.0495000E-02    9.9999953E-25
  1.0530000E-02    9.9999982E-25
  1.0565000E-02    1.0000012E-24
  1.0600000E-02    9.9999992E-25
  1.0635000E-02    9.9999913E-25
  1.0670000E-02    1.0000010E-24
  1.0705000E-02    1.0000014E-24
  1.0740000E-02    1.0000001E-24
  1.0775000E-02    9.9999923E-25
  1.0810000E-02    1.0000003E-24
  1.0845000E-02    1.0000011E-24
  1.0880000E-02    9.9999864E-25
  1.0915000E-02    9.9999864E-25
  1.0950000E-02    1.0000042E-24
  1.0985000E-02    1.0000030E-24
  1.1020000E-02    9.9999371E-25
  1.1055000E-02    9.9999519E-25
  1.1090000E-02    1.0000073E-24
  1.1125000E-02    1.0000057E-24
  1.1160000E-02    9.9998996E-25
  1.1195000E-02    9.9998888E-25
  1.1230000E-02    1.0000116E-24
  1.1265000E-02    1.0000230E-24
  1.1300000E-02    9.9999312E-25
  1.1335000E-02    9.9996334E-25
  1.1370000E-02    1.0000000E-24
  1.1405000E-02    1.0000577E-24
  1.1440000E-02    1.0000160E-24
  1.1475000E-02    9.9991374E-25
  1.1510000E-02    9.9994953E-25
  1.1545000E-02    1.0001185E-24
  1.1580000E-02    1.0001127E-24
  1.1615000E-02    9.9984984E-25
  1.1650000E-02    9.9978515E-25
  1.1685000E-02    1.0001721E-24
  1.1720000E-02    1.0003798E-24
  1.1755000E-02    9.9984383E-25
  1.1790000E-02    9.9937110E-25
  1.1825000E-02    1.0000554E-24
  1.1860000E-02    1.0009798E-24
  1.1895000E-02    1.0002066E-24
  1.1930000E-02    9.9856538E-25
  1.1965000E-02    9.9925701E-25
  1.2000000E-02    1.0019658E-24
  1.2035000E-02    1.0017184E-24
  1.2070000E-02    9.9752290E-25
  1.2105000E-02    9.9664894E-25
  1.2140000E-02    1.0027527E-24
  1.2175000E-02    1.0059042E-24
  1.2210000E-02    9.9762072E-25
  1.2245000E-02    9.9036970E-25
  1.2280000E-02    1.0006685E-24
  1.2315000E-02    1.0146979E-24
  1.2350000E-02    1.0034702E-24
  1.2385000E-02    9.7899719E-25
  1.2420000E-02    9.8837201E-25
  1.2455000E-02    1.0278692E-24
  1.2490000E-02    1.0259473E-24
  1.2525000E-02    9.6640095E-25
  1.2560000E-02    9.5095328E-25
  1.2595000E-02    1.0348306E-24
  1.2630000E-02    1.0837034E-24
  1.2665000E-02    9.7431372E-25
  1.2700000E-02    8.6792074E-25
  1.2735000E-02    9.9679774E-25
  1.2770000E-02    1.1942561E-24
  1.2805000E-02    1.0656137E-24
  1.2840000E-02    7.3421281E-25
  1.2875000E-02    8.1975728E-25
  1.2910000E-02    1.3339676E-24
  1.2945000E-02    1.3701728E-24
  1.2980000E-02    6.2743314E-25
  1.3015000E-02    3.3972960E-25
  1.3050000E-02    1.3350940E-24
  1.3085000E-02    2.0710774E-24
  1.3120000E-02    8.5281179E-25
  1.3155000E-02   -6.0734781E-25
  1.3190000E-02    6.9962092E-25
  1.3225000E-02    3.2390992E-24
  1.3260000E-02    2.1551745E-24
  1.3295000E-02   -1.8731262E-24
  1.3330000E-02   -1.5981115E-24
  1.3365000E-02    4.3139356E-24
  1.3400000E-02    5.8225563E-24
  1.3435000E-02   -2.2151810E-24
  1.3470000E-02   -6.9874017E-24
  1.3505000E-02    3.0269192E-24
  1.3540000E-02    1.3131555E-23
  1.3575000E-02    2.0492932E-24
  1.3610000E-02   -1.6036469E-23
  1.3645000E-02   -6.0753034E-24
  1.3680000E-02    2.3025712E-23
  1.3715000E-02    1.8326293E-23
  1.3750000E-02   -2.4699405E-23
  1.3785000E-02   -3.2125540E-23
  1.3820000E-02    2.6618313E-23
  1.3855000E-02    5.6498010E-23
  1.3890000E-02   -1.6982542E-23
  1.3925000E-02   -8.3568466E-23
  1.3960000E-02   -1.6032948E-24
  1.3995000E-02    1.1963246E-22
  1.4030000E-02    4.4125818E-23
  1.4065000E-02   -1.5185696E-22
  1.4100000E-02   -1.1068755E-22
  1.4135000E-02    1.7863789E-22
  1.4170000E-02    2.1725275E-22
  1.4205000E-02   -1.7576423E-22
  1.4240000E-02   -3.6123201E-22
  1.4275000E-02    1.2674294E-22
  1.4310000E-02    5.4952727E-22
  1.4345000E-02    1.0088261E-23
  1.4380000E-02   -7.6072369E-22
  1.4415000E-02   -2.6867575E-22
  1.4450000E-02    9.6938934E-22
  1.4485000E-02    7.0321197E-22
  1.4520000E-02   -1.1049266E-21
  1.4555000E-02   -1.3472271E-21
  1.4590000E-02    1.0742691E-21
  1.4625000E-02    2.2299549E-21
  1.4660000E-02   -7.2278329E-22
  1.4695000E-02   -3.3202414E-21
  1.4730000E-02   -1.3449444E-22
  1.4765000E-02    4.5253896E-21
  1.4800000E-02    1.7337968E-21
  1.4835000E-02   -5.6178896E-21
  1.4870000E-02   -4.3002438E-21
  1.4905000E-02    6.2225150E-21
  1.4940000E-02    8.0219023E-21
  1.4975000E-02   -5.7446397E-21
  1.5010000E-02   -1.2924531E-20
  1.5045000E-02    3.3831742E-21
  1.5080000E-02    1.8770097E-20
  1.5115000E-02    1.8777755E-21
  1.5150000E-02   -2.4853204E-20
  1.5185000E-02   -1.1141193E-20
  1.5220000E-02    2.9837419E-20
  1.5255000E-02    2.5427022E-20
  1.5290000E-02   -3.1535637E-20
  1.5325000E-02   -4.5298785E-20
  1.5360000E-02    2.6817069E-20
  1.5395000E-02    7.0390686E-20
  1.5430000E-02   -1.1597912E-20
  1.5465000E-02   -9.8708865E-20
  1.5500000E-02   -1.8847549E-20
  1.5535000E-02    1.2587759E-19
  1.5570000E-02    6.9250792E-20
  1.5605000E-02   -1.4431104E-19
  1.5640000E-02   -1.4312875E-19
  1.5675001E-02    1.4263564E-19
  1.5710000E-02    2.4100724E-19
  1.5745001E-02   -1.0553094E-19
  1.5780000E-02   -3.5794667E-19
  1.5814999E-02    1.4511483E-20
  1.5850000E-02    4.8062213E-19
  1.5884999E-02    1.4999169E-19
  1.5920000E-02   -5.8420665E-19
  1.5954999E-02   -4.0464841E-19
  1.5990000E-02    6.2982571E-19
  1.6024999E-02    7.5708967E-19
  1.6060000E-02   -5.6349182E-19
  1.6094999E-02   -1.1973765E-18
  1.6130000E-02    3.1801057E-19
  1.6164999E-02    1.6876268E-18
  1.6200000E-02    1.8064567E-19
  1.6235000E-02   -2.1507984E-18
  1.6270000E-02   -1.0006792E-18
  1.6305000E-02    2.4609864E-18
  1.6340001E-02    2.1843170E-18
  1.6375000E-02   -2.4383856E-18
  1.6410001E-02   -3.7196563E-18
  1.6445000E-02    1.8536272E-18
  1.6480001E-02    5.5058341E-18
  1.6515000E-02   -4.4658685E-19
  1.6550001E-02   -7.3150741E-18
  1.6585000E-02   -2.0345034E-18
  1.6620001E-02    8.7588013E-18
  1.6655000E-02    5.7698946E-18
  1.6690001E-02   -9.2679698E-18
  1.6725000E-02   -1.0779111E-17
  1.6759999E-02    8.1023532E-18
  1.6795000E-02    1.6810141E-17
  1.6829999E-02   -4.4049010E-18
  1.6865000E-02   -2.3218020E-17
  1.6899999E-02   -2.6817692E-18
  1.6935000E-02    2.8854449E-17
  1.6969999E-02    1.3823619E-17
  1.7005000E-02   -3.2001004E-17
  1.7039999E-02   -2.9225184E-17
  1.7075000E-02    3.0388124E-17
  1.7109999E-02    4.8293041E-17
  1.7145000E-02   -2.1349546E-17
  1.7180000E-02   -6.9267317E-17
  1.7215000E-02    2.1613932E-18
  1.7250000E-02    8.8887340E-17
  1.7285001E-02    2.9399382E-17
  1.7320000E-02   -1.0218288E-16
  1.7355001E-02   -7.4267306E-17
  1.7390000E-02    1.0251969E-16
  1.7425001E-02    1.3111415E-16
  1.7460000E-02   -8.2032381E-17
  1.7495001E-02   -1.9528771E-16
  1.7530000E-02    3.2583571E-17
  1.7565001E-02    2.5785626E-16
  1.7600000E-02    5.2660723E-17
  1.7635001E-02   -3.0502170E-16
  1.7670000E-02   -1.7703154E-16
  1.7704999E-02    3.1824277E-16
  1.7740000E-02    3.3765176E-16
  1.7774999E-02   -2.7544807E-16
  1.7810000E-02   -5.2254251E-16
  1.7844999E-02    1.5367514E-16
  1.7880000E-02    7.0804882E-16
  1.7914999E-02    6.6646127E-17
  1.7950000E-02   -8.5732000E-16
  1.7984999E-02   -3.9577540E-16
  1.8020000E-02    9.2073445E-16
  1.8054999E-02    8.2750894E-16
  1.8090000E-02   -8.3925088E-16
  1.8124999E-02   -1.3316597E-15
  1.8160000E-02    5.5146398E-16
  1.8195000E-02    1.8475385E-15
  1.8230001E-02   -4.8702566E-18
  1.8265000E-02   -2.2803622E-15
  1.8300001E-02   -8.2888993E-16
  1.8335000E-02    2.5028398E-15
  1.8370001E-02    1.9359542E-15
  1.8405000E-02   -2.3642070E-15
  1.8440001E-02   -3.2416400E-15
  1.8475000E-02    1.7085811E-15
  1.8510001E-02    4.5950042E-15
  1.8545000E-02   -4.0345537E-16
  1.8580001E-02   -5.7611611E-15
  1.8615000E-02   -1.6226064E-15
  1.8650001E-02    6.4268625E-15
  1.8685000E-02    4.3363356E-15
  1.8719999E-02   -6.2244021E-15
  1.8755000E-02   -7.5563233E-15
  1.8789999E-02    4.7777673E-15
  1.8825000E-02    1.0918563E-14
  1.8859999E-02   -1.7718831E-15
  1.8895000E-02   -1.3862328E-14
  1.8929999E-02   -2.9581444E-15
  1.8965000E-02    1.5648205E-14
  1.8999999E-02    9.3267069E-15
  1.9035000E-02   -1.5419437E-14
  1.9069999E-02   -1.6901526E-14
  1.9105000E-02    1.2313735E-14
  1.9140000E-02    2.4832556E-14
  1.9175000E-02   -5.6250370E-15
  1.9210000E-02   -3.1830902E-14
  1.9245001E-02   -4.9951028E-15
  1.9280000E-02    3.6222822E-14
  1.9315001E-02    1.9317584E-14
  1.9350000E-02   -3.6102133E-14
  1.9385001E-02   -3.6335945E-14
  1.9420000E-02    2.9589439E-14
  1.9455001E-02    5.4130376E-14
  1.9490000E-02   -1.5193972E-14
  1.9525001E-02   -6.9850613E-14
  1.9560000E-02   -7.7516263E-15
  1.9595001E-02    7.9867252E-14
  1.9630000E-02    3.8636456E-14
  1.9664999E-02   -8.0131648E-14
  1.9700000E-02   -7.5179500E-14
  1.9734999E-02    6.6754016E-14
  1.9770000E-02    1.1319631E-13
  1.9804999E-02   -3.6775684E-14
  1.9840000E-02   -1.4663120E-13
  1.9874999E-02   -1.0938493E-14
  1.9910000E-02    1.6795059E-13
  1.9944999E-02    7.4810275E-14
  1.9980000E-02   -1.6895490E-13
  2.0014999E-02   -1.4983178E-13
  2.0050000E-02    1.4200833E-13
  2.0085000E-02    2.2721809E-13
  2.0120000E-02   -8.1609673E-14
  2.0155000E-02   -2.9462950E-13
  2.0190001E-02   -1.3867577E-14
  2.0225000E-02    3.3711207E-13
  2.0260001E-02    1.4053621E-13
  2.0295000E-02   -3.3884863E-13
  2.0330001E-02   -2.8779268E-13
  2.0365000E-02    2.8565228E-13
  2.0400001E-02    4.3791457E-13
  2.0435000E-02   -1.6800435E-13
  2.0470001E-02   -5.6680951E-13
  2.0505000E-02   -1.5747559E-14
  2.0540001E-02    6.4613977E-13
  2.0575000E-02    2.5655181E-13
  2.0609999E-02   -6.4689232E-13
  2.0645000E-02   -5.3283127E-13
  2.0679999E-02    5.4418742E-13
  2.0715000E-02    8.1029812E-13
  2.0749999E-02   -3.2285408E-13
  2.0785000E-02   -1.0439665E-12
  2.0819999E-02   -1.7029550E-14
  2.0855000E-02    1.1826357E-12
  2.0889999E-02    4.5558408E-13
  2.0925000E-02   -1.1758164E-12
  2.0959999E-02   -9.5074079E-13
  2.0995000E-02    9.8250954E-13
  2.1029999E-02    1.4390035E-12
  2.1065000E-02   -5.8087563E-13
  2.1100000E-02   -1.8401715E-12
  2.1135001E-02   -2.2749196E-14
  2.1170000E-02    2.0662315E-12
  2.1205001E-02    7.8720044E-13
  2.1240000E-02   -2.0340697E-12
  2.1275001E-02   -1.6340727E-12
  2.1310000E-02    1.6806459E-12
  2.1345001E-02    2.4510300E-12
  2.1380000E-02   -9.7878639E-13
  2.1415001E-02   -3.1018358E-12
  2.1450000E-02   -4.9206919E-14
  2.1485001E-02    3.4429269E-12
  2.1520000E-02    1.3228748E-12
  2.1555001E-02   -3.3454760E-12
  2.1590000E-02   -2.7028486E-12
  2.1624999E-02    2.7201559E-12
  2.1660000E-02    3.9996660E-12
  2.1694999E-02   -1.5412133E-12
  2.1730000E-02   -4.9933907E-12
  2.1764999E-02   -1.3464825E-13
  2.1800000E-02    5.4627635E-12
  2.1834999E-02    2.1590438E-12
  2.1870000E-02   -5.2211538E-12
  2.1904999E-02   -4.2960652E-12
  2.1940000E-02    4.1545881E-12
  2.1974999E-02    6.2420433E-12
  2.2010000E-02   -2.2557208E-12
  2.2045000E-02   -7.6609569E-12
  2.2080000E-02   -3.5298465E-13
  2.2115000E-02    8.2325266E-12
  2.2150001E-02    3.4131959E-12
  2.2185000E-02   -7.7074302E-12
  2.2220001E-02   -6.5461126E-12
  2.2255000E-02    5.9614050E-12
  2.2290001E-02    9.2910809E-12
  2.2325000E-02   -3.0387982E-12
  2.2360001E-02   -1.1165356E-11
  2.2395000E-02   -8.2418555E-13
  2.2430001E-02    1.1738231E-11
  2.2465000E-02    5.2038625E-12
  2.2500001E-02   -1.0709904E-11
  2.2535000E-02   -9.5261082E-12
  2.2569999E-02    7.9817125E-12
  2.2605000E-02    1.3134376E-11
  2.2639999E-02   -3.7046685E-12
  2.2675000E-02   -1.5383172E-11
  2.2709999E-02   -1.7063219E-12
  2.2745000E-02    1.5744206E-11
  2.2779999E-02    7.6004073E-12
  2.2815000E-02   -1.3909159E-11
  2.2849999E-02   -1.3162435E-11
  2.2885000E-02    9.8706382E-12
  2.2919999E-02    1.7523004E-11
  2.2955000E-02   -3.9633383E-12
  2.2990000E-02   -1.9892537E-11
  2.3025000E-02   -3.1466435E-12
  2.3060000E-02    1.9699780E-11
  2.3095001E-02    1.0530360E-11
  2.3130000E-02   -1.6710723E-11
  2.3165001E-02   -1.7117908E-11
  2.3200000E-02    1.1104149E-11
  2.3235001E-02    2.1858118E-11
  2.3270000E-02   -3.4853537E-12
  2.3305001E-02   -2.3893582E-11
  2.3340000E-02   -5.1724445E-12
  2.3375001E-02    2.2719167E-11
  2.3410000E-02    1.3654916E-11
  2.3445001E-02   -1.8296602E-11
  2.3480000E-02   -2.0688399E-11
  2.3514999E-02    1.1097420E-11
  2.3550000E-02    2.5147271E-11
  2.3584999E-02   -2.0605455E-12
  2.3620000E-02   -2.6251820E-11
  2.3654999E-02   -7.5350629E-12
  2.3690000E-02    2.3720104E-11
  2.3724999E-02    1.6266920E-11
  2.3760000E-02   -1.7841839E-11
  2.3794999E-02   -2.2803429E-11
  2.3830000E-02    9.4538535E-12
  2.3864999E-02    2.6134912E-11
  2.3900000E-02    1.8299476E-13
  2.3934999E-02   -2.5758572E-11
  2.3970000E-02   -9.5911118E-12
  2.4005000E-02    2.1776905E-11
  2.4040001E-02    1.7328897E-11
  2.4075000E-02   -1.4890186E-11
  2.4110001E-02   -2.2246396E-11
  2.4145000E-02    6.2757581E-12
  2.4180001E-02    2.3690988E-11
  2.4215000E-02    2.6228715E-12
  2.4250001E-02   -2.1624454E-11
  2.4285000E-02   -1.0362967E-11
  2.4320001E-02    1.6620805E-11
  2.4355000E-02    1.5768518E-11
  2.4390001E-02   -9.7477451E-12
  2.4425000E-02   -1.8146595E-11
  2.4460001E-02    2.3492421E-12
  2.4495000E-02    1.7404975E-11
  2.4529999E-02    4.2245968E-12
  2.4565000E-02   -1.4048516E-11
  2.4599999E-02   -8.8865183E-12
  2.4635000E-02    9.0516197E-12
  2.4669999E-02    1.1021272E-11
  2.4705000E-02   -3.6356744E-12
  2.4739999E-02   -1.0592094E-11
  2.4775000E-02   -1.0031881E-12
  2.4809999E-02    8.1183142E-12
  2.4845000E-02    3.9523801E-12
  2.4879999E-02   -4.5337124E-12
  2.4915000E-02   -4.7752496E-12
  2.4950000E-02    9.5269322E-13
  2.4985000E-02    3.5895692E-12
  2.5020000E-02    1.5985687E-12
  2.5055001E-02   -1.0182875E-12
  2.5090000E-02   -2.4274088E-12
  2.5125001E-02   -1.9790751E-12
  2.5160000E-02    1.3366720E-12
  2.5195001E-02    4.3525097E-12
  2.5230000E-02    1.3323100E-12
  2.5265001E-02   -5.2291188E-12
  2.5300000E-02   -4.7878845E-12
  2.5335001E-02    4.1379339E-12
  2.5370000E-02    7.9857926E-12
  2.5405001E-02   -1.1400095E-12
  2.5440000E-02   -9.8937360E-12
  2.5474999E-02   -3.1714434E-12
  2.5510000E-02    9.7575958E-12
  2.5544999E-02    7.8012588E-12
  2.5580000E-02   -7.3076779E-12
  2.5614999E-02   -1.1586157E-11
  2.5650000E-02    2.8526556E-12
  2.5684999E-02    1.3477787E-11
  2.5720000E-02    2.7621254E-12
  2.5754999E-02   -1.2812139E-11
  2.5790000E-02   -8.3304700E-12
  2.5824999E-02    9.4981471E-12
  2.5860000E-02    1.2555981E-11
  2.5895000E-02   -4.0799781E-12
  2.5930000E-02   -1.4360783E-11
  2.5965000E-02   -2.3497046E-12
  2.6000001E-02    1.3160062E-11
  2.6035000E-02    8.3709463E-12
  2.6070001E-02   -9.0379709E-12
  2.6105000E-02   -1.2549455E-11
  2.6140001E-02    2.7786412E-12
  2.6175000E-02    1.3774306E-11
  2.6210001E-02    4.2633822E-12
  2.6245000E-02   -1.1546212E-11
  2.6280001E-02   -1.0437149E-11
  2.6315000E-02    6.1420955E-12
  2.6350001E-02    1.4154923E-11
  2.6385000E-02    1.3829889E-12
  2.6419999E-02   -1.4269086E-11
  2.6455000E-02   -9.3763365E-12
  2.6489999E-02    1.0374480E-11
  2.6525000E-02    1.5916697E-11
  2.6559999E-02   -2.9678879E-12
  2.6595000E-02   -1.9233967E-11
  2.6629999E-02   -6.5879450E-12
  2.6665000E-02    1.8125931E-11
  2.6699999E-02    1.6298187E-11
  2.6735000E-02   -1.2280419E-11
  2.6769999E-02   -2.3931683E-11
  2.6805000E-02    2.4223182E-12
  2.6839999E-02    2.7500790E-11
  2.6875000E-02    9.7615848E-12
  2.6910000E-02   -2.5723925E-11
  2.6945001E-02   -2.1920667E-11
  2.6980000E-02    1.8359494E-11