 -4.8000002E-03    1.0000000E-24
 -4.7650002E-03    1.0000002E-24
 -4.7300002E-03    1.0000001E-24
 -4.6950001E-03    1.0000000E-24
 -4.6600001E-03    1.0000003E-24
 -4.6250001E-03    1.0000002E-24
 -4.5900000E-03    1.0000000E-24
 -4.5550000E-03    1.0000001E-24
 -4.5200000E-03    1.0000000E-24
 -4.4849999E-03    1.0000000E-24
 -4.4499999E-03    1.0000002E-24
 -4.4149999E-03    1.0000000E-24
 -4.3799998E-03    9.9999992E-25
 -4.3449998E-03    1.0000000E-24
 -4.3100002E-03    1.0000003E-24
 -4.2750002E-03    1.0000002E-24
 -4.2400002E-03    1.0000001E-24
 -4.2050001E-03    1.0000002E-24
 -4.1700001E-03    1.0000005E-24
 -4.1350001E-03    9.9999982E-25
 -4.1000000E-03    9.9999943E-25
 -4.0650000E-03    1.0000004E-24
 -4.0300000E-03    1.0000004E-24
 -3.9949999E-03    9.9999953E-25
 -3.9599999E-03    9.9999992E-25
 -3.9249999E-03    1.0000007E-24
 -3.8900001E-03    9.9999982E-25
 -3.8550000E-03    9.9999963E-25
 -3.8200000E-03    1.0000006E-24
 -3.7849999E-03    1.0000004E-24
 -3.7499999E-03    9.9999972E-25
 -3.7150001E-03    1.0000005E-24
 -3.6800001E-03    1.0000007E-24
 -3.6450000E-03    9.9999963E-25
 -3.6100000E-03    9.9999953E-25
 -3.5750000E-03    1.0000003E-24
 -3.5399999E-03    9.9999992E-25
 -3.5049999E-03    9.9999982E-25
 -3.4700001E-03    1.0000006E-24
 -3.4350001E-03    1.0000005E-24
 -3.4000000E-03    9.9999992E-25
 -3.3650000E-03    9.9999982E-25
 -3.3300000E-03    1.0000003E-24
 -3.2949999E-03    9.9999992E-25
 -3.2599999E-03    9.9999972E-25
 -3.2250001E-03    1.0000000E-24
 -3.1900001E-03    1.0000002E-24
 -3.1550000E-03    1.0000002E-24
 -3.1200000E-03    1.0000004E-24
 -3.0850000E-03    1.0000006E-24
 -3.0499999E-03    9.9999992E-25
 -3.0149999E-03    9.9999992E-25
 -2.9800001E-03    1.0000005E-24
 -2.9450001E-03    1.0000001E-24
 -2.9100000E-03    9.9999972E-25
 -2.8750000E-03    1.0000001E-24
 -2.8400000E-03    1.0000002E-24
 -2.8049999E-03    9.9999992E-25
 -2.7699999E-03    1.0000000E-24
 -2.7350001E-03    1.0000007E-24
 -2.7000001E-03    1.0000006E-24
 -2.6650000E-03    9.9999963E-25
 -2.6300000E-03    9.9999933E-25
 -2.5950000E-03    1.0000000E-24
 -2.5599999E-03    1.0000002E-24
 -2.5249999E-03    1.0000005E-24
 -2.4900001E-03    1.0000007E-24
 -2.4550001E-03    1.0000007E-24
 -2.4200000E-03    1.0000003E-24
 -2.3850000E-03    9.9999972E-25
 -2.3500000E-03    9.9999953E-25
 -2.3149999E-03    9.9999953E-25
 -2.2799999E-03    9.9999943E-25
 -2.2450001E-03    9.9999992E-25
 -2.2100001E-03    1.0000007E-24
 -2.1750000E-03    1.0000002E-24
 -2.1400000E-03    9.9999972E-25
 -2.1050000E-03    1.0000004E-24
 -2.0699999E-03    1.0000007E-24
 -2.0349999E-03    9.9999992E-25
 -2.0000001E-03    9.9999972E-25
 -1.9650001E-03    1.0000004E-24
 -1.9300000E-03    1.0000008E-24
 -1.8950000E-03    1.0000006E-24
 -1.8600000E-03    9.9999963E-25
 -1.8250000E-03    9.9999972E-25
 -1.7900000E-03    1.0000003E-24
 -1.7550000E-03    9.9999982E-25
 -1.7199999E-03    9.9999913E-25
 -1.6850000E-03    1.0000007E-24
 -1.6500000E-03    1.0000014E-24
 -1.6150000E-03    9.9999893E-25
 -1.5800000E-03    9.9999795E-25
 -1.5450000E-03    1.0000003E-24
 -1.5100000E-03    1.0000009E-24
 -1.4750001E-03    9.9999992E-25
 -1.4400000E-03    1.0000007E-24
 -1.4050000E-03    1.0000016E-24
 -1.3700000E-03    1.0000005E-24
 -1.3350000E-03    9.9999992E-25
 -1.3000000E-03    9.9999963E-25
 -1.2650000E-03    9.9999943E-25
 -1.2300001E-03    1.0000000E-24
 -1.1950000E-03    1.0000007E-24
 -1.1600000E-03    9.9999982E-25
 -1.1250000E-03    9.9999913E-25
 -1.0900000E-03    1.0000000E-24
 -1.0550000E-03    1.0000007E-24
 -1.0200000E-03    9.9999972E-25
 -9.8500005E-04    9.9999982E-25
 -9.5000002E-04    1.0000010E-24
 -9.1499998E-04    1.0000006E-24
 -8.8000001E-04    9.9999933E-25
 -8.4499997E-04    9.9999972E-25
 -8.1000000E-04    1.0000001E-24
 -7.7500002E-04    9.9999982E-25
 -7.3999999E-04    9.9999953E-25
 -7.0500001E-04    1.0000001E-24
 -6.6999998E-04    1.0000003E-24
 -6.3500000E-04    1.0000004E-24
 -6.0000003E-04    1.0000005E-24
 -5.6499999E-04    1.0000007E-24
 -5.3000002E-04    9.9999982E-25
 -4.9499999E-04    9.9999982E-25
 -4.6000001E-04    1.0000005E-24
 -4.2500001E-04    1.0000001E-24
 -3.9000000E-04    1.0000001E-24
 -3.5500000E-04    1.0000007E-24
 -3.1999999E-04    1.0000001E-24
 -2.8499999E-04    9.9999943E-25
 -2.5000001E-04    9.9999992E-25
 -2.1499999E-04    9.9999992E-25
 -1.8000000E-04    9.9999884E-25
 -1.4500000E-04    9.9999963E-25
 -1.1000000E-04    1.0000007E-24
 -7.5000004E-05    1.0000002E-24
 -3.9999999E-05    1.0000003E-24
 -4.9999999E-06    1.0000012E-24
  2.9999999E-05    1.0000001E-24
  6.5000000E-05    9.9999893E-25
  9.9999997E-05    9.9999963E-25
  1.3499999E-04    9.9999972E-25
  1.7000000E-04    1.0000002E-24
  2.0500000E-04    1.0000013E-24
  2.3999999E-04    1.0000005E-24
  2.7500000E-04    1.0000002E-24
  3.1000000E-04    1.0000014E-24
  3.4500001E-04    1.0000000E-24
  3.8000001E-04    9.9999834E-25
  4.1499999E-04    9.9999982E-25
  4.4999999E-04    1.0000004E-24
  4.8500000E-04    9.9999972E-25
  5.2000000E-04    1.0000003E-24
  5.5499998E-04    1.0000004E-24
  5.9000001E-04    1.0000000E-24
  6.2499999E-04    1.0000001E-24
  6.6000002E-04    9.9999933E-25
  6.9500000E-04    1.0000000E-24
  7.3000003E-04    1.0000015E-24
  7.6500000E-04    1.0000004E-24
  7.9999998E-04    9.9999903E-25
  8.3500001E-04    1.0000009E-24
  8.6999999E-04    1.0000011E-24
  9.0500002E-04    9.9999884E-25
  9.4000000E-04    9.9999923E-25
  9.7499997E-04    1.0000010E-24
  1.0100000E-03    1.0000010E-24
  1.0450000E-03    1.0000000E-24
  1.0800000E-03    9.9999982E-25
  1.1150000E-03    1.0000002E-24
  1.1500000E-03    9.9999992E-25
  1.1849999E-03    9.9999913E-25
  1.2200000E-03    9.9999992E-25
  1.2550000E-03    1.0000008E-24
  1.2900000E-03    1.0000000E-24
  1.3250000E-03    9.9999992E-25
  1.3600000E-03    1.0000010E-24
  1.3950000E-03    9.9999972E-25
  1.4299999E-03    9.9999834E-25
  1.4650000E-03    9.9999972E-25
  1.5000000E-03    1.0000013E-24
  1.5350000E-03    1.0000004E-24
  1.5700000E-03    9.9999963E-25
  1.6050000E-03    1.0000002E-24
  1.6400000E-03    1.0000003E-24
  1.6749999E-03    9.9999893E-25
  1.7100000E-03    9.9999943E-25
  1.7450000E-03    1.0000015E-24
  1.7800000E-03    1.0000009E-24
  1.8150000E-03    9.9999903E-25
  1.8500000E-03    1.0000000E-24
  1.8850000E-03    1.0000012E-24
  1.9200000E-03    1.0000004E-24
  1.9550000E-03    1.0000004E-24
  1.9900000E-03    1.0000010E-24
  2.0250001E-03    1.0000005E-24
  2.0600001E-03    9.9999972E-25
  2.0949999E-03    9.9999992E-25
  2.1299999E-03    1.0000001E-24
  2.1650000E-03    9.9999953E-25
  2.2000000E-03    1.0000001E-24
  2.2350000E-03    1.0000008E-24
  2.2700001E-03    9.9999992E-25
  2.3050001E-03    9.9999903E-25
  2.3399999E-03    1.0000004E-24
  2.3749999E-03    1.0000006E-24
  2.4100000E-03    9.9999903E-25
  2.4450000E-03    9.9999992E-25
  2.4800000E-03    1.0000011E-24
  2.5150001E-03    1.0000003E-24
  2.5500001E-03    1.0000001E-24
  2.5849999E-03    1.0000004E-24
  2.6199999E-03    9.9999933E-25
  2.6550000E-03    9.9999913E-25
  2.6900000E-03    9.9999972E-25
  2.7250000E-03    9.9999963E-25
  2.7600001E-03    1.0000002E-24
  2.7950001E-03    1.0000011E-24
  2.8299999E-03    1.0000004E-24
  2.8649999E-03    1.0000000E-24
  2.9000000E-03    1.0000010E-24
  2.9350000E-03    1.0000003E-24
  2.9700000E-03    9.9999913E-25
  3.0050001E-03    9.9999963E-25
  3.0400001E-03    1.0000001E-24
  3.0749999E-03    1.0000001E-24
  3.1099999E-03    1.0000010E-24
  3.1450000E-03    1.0000003E-24
  3.1800000E-03    9.9999913E-25
  3.2150000E-03    9.9999933E-25
  3.2500001E-03    9.9999893E-25
  3.2850001E-03    9.9999923E-25
  3.3199999E-03    1.0000013E-24
  3.3549999E-03    1.0000018E-24
  3.3900000E-03    1.0000003E-24
  3.4250000E-03    9.9999972E-25
  3.4600000E-03    1.0000003E-24
  3.4950001E-03    1.0000012E-24
  3.5300001E-03    9.9999992E-25
  3.5649999E-03    9.9999834E-25
  3.5999999E-03    9.9999992E-25
  3.6350000E-03    1.0000006E-24
  3.6700000E-03    9.9999854E-25
  3.7050000E-03    9.9999933E-25
  3.7400001E-03    1.0000019E-24
  3.7750001E-03    1.0000004E-24
  3.8099999E-03    9.9999913E-25
  3.8449999E-03    1.0000005E-24
  3.8800000E-03    1.0000008E-24
  3.9149998E-03    1.0000002E-24
  3.9499998E-03    1.0000005E-24
  3.9849998E-03    1.0000000E-24
  4.0199999E-03    1.0000002E-24
  4.0549999E-03    1.0000005E-24
  4.0899999E-03    9.9999913E-25
  4.1250000E-03    9.9999884E-25
  4.1600000E-03    1.0000010E-24
  4.1950000E-03    1.0000007E-24
  4.2300001E-03    9.9999864E-25
  4.2650001E-03    1.0000004E-24
  4.3000001E-03    1.0000018E-24
  4.3350002E-03    1.0000000E-24
  4.3700002E-03    9.9999953E-25
  4.4049998E-03    1.0000010E-24
  4.4399998E-03    1.0000011E-24
  4.4749998E-03    9.9999982E-25
  4.5099999E-03    9.9999923E-25
  4.5449999E-03    1.0000005E-24
  4.5799999E-03    1.0000013E-24
  4.6150000E-03    9.9999913E-25
  4.6500000E-03    9.9999785E-25
  4.6850001E-03    1.0000002E-24
  4.7200001E-03    1.0000010E-24
  4.7550001E-03    9.9999923E-25
  4.7900002E-03    1.0000007E-24
  4.8250002E-03    1.0000019E-24
  4.8600002E-03    9.9999854E-25
  4.8949998E-03    9.9999893E-25
  4.9299998E-03    1.0000017E-24
  4.9649999E-03    1.0000001E-24
  4.9999999E-03    9.9999903E-25
  5.0349999E-03    1.0000017E-24
  5.0700000E-03    1.0000019E-24
  5.1050000E-03    9.9999933E-25
  5.1400000E-03    9.9999874E-25
  5.1750001E-03    9.9999903E-25
  5.2100001E-03    9.9999992E-25
  5.2450001E-03    9.9999972E-25
  5.2800002E-03    9.9999943E-25
  5.3150002E-03    1.0000020E-24
  5.3500002E-03    1.0000029E-24
  5.3849998E-03    9.9999874E-25
  5.4199998E-03    9.9999686E-25
  5.4549999E-03    1.0000003E-24
  5.4899999E-03    1.0000019E-24
  5.5249999E-03    9.9999982E-25
  5.5600000E-03    1.0000001E-24
  5.5950000E-03    1.0000009E-24
  5.6300000E-03    9.9999992E-25
  5.6650001E-03    9.9999953E-25
  5.7000001E-03    9.9999953E-25
  5.7350001E-03    9.9999982E-25
  5.7700002E-03    1.0000011E-24
  5.8050002E-03    1.0000013E-24
  5.8400002E-03    9.9999923E-25
  5.8749998E-03    9.9999854E-25
  5.9099998E-03    1.0000012E-24
  5.9449999E-03    1.0000023E-24
  5.9799999E-03    9.9999943E-25
  6.0149999E-03    9.9999874E-25
  6.0500000E-03    1.0000011E-24
  6.0850000E-03    1.0000001E-24
  6.1200000E-03    9.9999755E-25
  6.1550001E-03    9.9999963E-25
  6.1900001E-03    1.0000027E-24
  6.2250001E-03    1.0000012E-24
  6.2600002E-03    9.9999893E-25
  6.2950002E-03    1.0000001E-24
  6.3299998E-03    1.0000004E-24
  6.3649998E-03    9.9999913E-25
  6.3999998E-03    9.9999992E-25
  6.4349999E-03    1.0000019E-24
  6.4699999E-03    1.0000012E-24
  6.5049999E-03    9.9999943E-25
  6.5400000E-03    1.0000000E-24
  6.5750000E-03    1.0000009E-24
  6.6100000E-03    9.9999953E-25
  6.6450001E-03    9.9999893E-25
  6.6800001E-03    9.9999992E-25
  6.7150001E-03    1.0000000E-24
  6.7500002E-03    1.0000002E-24
  6.7850002E-03    1.0000004E-24
  6.8199998E-03    9.9999903E-25
  6.8549998E-03    9.9999943E-25
  6.8899998E-03    1.0000011E-24
  6.9249999E-03    9.9999992E-25
  6.9599999E-03    9.9999903E-25
  6.9949999E-03    1.0000010E-24
  7.0300000E-03    1.0000011E-24
  7.0650000E-03    9.9999923E-25
  7.1000000E-03    1.0000008E-24
  7.1350001E-03    1.0000025E-24
  7.1700001E-03    1.0000004E-24
  7.2050001E-03    9.9999874E-25
  7.2400002E-03    9.9999982E-25
  7.2750002E-03    1.0000003E-24
  7.3099998E-03    9.9999943E-25
  7.3449998E-03    9.9999913E-25
  7.3799998E-03    9.9999992E-25
  7.4149999E-03    1.0000003E-24
  7.4499999E-03    1.0000001E-24
  7.4850000E-03    1.0000000E-24
  7.5200000E-03    9.9999982E-25
  7.5550000E-03    9.9999933E-25
  7.5900001E-03    9.9999992E-25
  7.6250001E-03    1.0000005E-24
  7.6600001E-03    9.9999992E-25
  7.6950002E-03    1.0000002E-24
  7.7300002E-03    1.0000009E-24
  7.7650002E-03    1.0000000E-24
  7.7999998E-03    9.9999844E-25
  7.8349998E-03    9.9999943E-25
  7.8699999E-03    1.0000011E-24
  7.9049999E-03    1.0000005E-24
  7.9399999E-03    9.9999982E-25
  7.9750000E-03    1.0000012E-24
  8.0100000E-03    1.0000013E-24
  8.0450000E-03    9.9999913E-25
  8.0800001E-03    9.9999874E-25
  8.1150001E-03    1.0000002E-24
  8.1500001E-03    1.0000004E-24
  8.1850002E-03    1.0000006E-24
  8.2200002E-03    1.0000001E-24
  8.2550002E-03    9.9999884E-25
  8.2900003E-03    9.9999913E-25
  8.3250003E-03    1.0000007E-24
  8.3600003E-03    1.0000011E-24
  8.3950004E-03    1.0000010E-24
  8.4300004E-03    1.0000004E-24
  8.4650004E-03    9.9999844E-25
  8.5000005E-03    9.9999834E-25
  8.5349996E-03    1.0000001E-24
  8.5699996E-03    1.0000002E-24
  8.6049996E-03    1.0000009E-24
  8.6399997E-03    1.0000028E-24
  8.6749997E-03    9.9999953E-25
  8.7099997E-03    9.9999657E-25
  8.7449998E-03    1.0000009E-24
  8.7799998E-03    1.0000016E-24
  8.8149998E-03    9.9999736E-25
  8.8499999E-03    1.0000003E-24
  8.8849999E-03    1.0000036E-24
  8.9199999E-03    9.9999884E-25
  8.9550000E-03    9.9999903E-25
  8.9900000E-03    1.0000030E-24
  9.0250000E-03    9.9999963E-25
  9.0600001E-03    9.9999795E-25
  9.0950001E-03    1.0000021E-24
  9.1300001E-03    1.0000001E-24
  9.1650002E-03    9.9999686E-25
  9.2000002E-03    1.0000012E-24
  9.2350002E-03    1.0000028E-24
  9.2700003E-03    9.9999864E-25
  9.3050003E-03    9.9999972E-25
  9.3400003E-03    1.0000022E-24
  9.3750004E-03    9.9999953E-25
  9.4100004E-03    9.9999736E-25
  9.4450004E-03    9.9999963E-25
  9.4799995E-03    1.0000020E-24
  9.5149996E-03    1.0000010E-24
  9.5499996E-03    9.9999923E-25
  9.5849996E-03    1.0000006E-24
  9.6199997E-03    1.0000012E-24
  9.6549997E-03    9.9999785E-25
  9.6899997E-03    9.9999834E-25
  9.7249998E-03    1.0000027E-24
  9.7599998E-03    1.0000011E-24
  9.7949998E-03    9.9999726E-25
  9.8299999E-03    1.0000002E-24
  9.8649999E-03    1.0000018E-24
  9.8999999E-03    9.9999736E-25
  9.9350000E-03    9.9999686E-25
  9.9700000E-03    1.0000024E-24
  1.0005000E-02    1.0000031E-24
  1.0040000E-02    9.9999854E-25
  1.0075000E-02    1.0000000E-24
  1.0110000E-02    1.0000038E-24
  1.0145000E-02    9.9999943E-25
  1.0180000E-02    9.9999538E-25
  1.0215000E-02    1.0000007E-24
  1.0250000E-02    1.0000036E-24
  1.0285000E-02    9.9999884E-25
  1.0320000E-02    9.9999884E-25
  1.0355000E-02    1.0000026E-24
  1.0390000E-02    1.0000003E-24
  1.0425000E-02    9.9999716E-25
  1.0460000E-02    1.0000003E-24
  1.0495000E-02    1.0000026E-24
  1.0530000E-02    9.9999992E-25
  1.0565000E-02    9.9999913E-25
  1.0600000E-02    1.0000012E-24
  1.0635000E-02    1.0000008E-24
  1.0670000E-02    9.9999844E-25
  1.0705000E-02    9.9999933E-25
  1.0740000E-02    1.0000010E-24
  1.0775000E-02    9.9999903E-25
  1.0810000E-02    9.9999913E-25
  1.0845000E-02    1.0000027E-24
  1.0880000E-02    1.0000022E-24
  1.0915000E-02    9.9999874E-25
  1.0950000E-02    1.0000011E-24
  1.0985000E-02    1.0000026E-24
  1.1020000E-02    9.9999795E-25
  1.1055000E-02    9.9999706E-25
  1.1090000E-02    1.0000015E-24
  1.1125000E-02    1.0000016E-24
  1.1160000E-02    9.9999992E-25
  1.1195000E-02    1.0000006E-24
  1.1230000E-02    1.0000007E-24
  1.1265000E-02    9.9999884E-25
  1.1300000E-02    9.9999775E-25
  1.1335000E-02    9.9999992E-25
  1.1370000E-02    1.0000020E-24
  1.1405000E-02    1.0000010E-24
  1.1440000E-02    1.0000002E-24
  1.1475000E-02    1.0000011E-24
  1.1510000E-02    1.0000001E-24
  1.1545000E-02    9.9999903E-25
  1.1580000E-02    1.0000000E-24
  1.1615000E-02    9.9999963E-25
  1.1650000E-02    9.9999874E-25
  1.1685000E-02    1.0000004E-24
  1.1720000E-02    1.0000018E-24
  1.1755000E-02    1.0000008E-24
  1.1790000E-02    1.0000009E-24
  1.1825000E-02    1.0000007E-24
  1.1860000E-02    9.9999953E-25
  1.1895000E-02    9.9999972E-25
  1.1930000E-02    9.9999982E-25
  1.1965000E-02    9.9999903E-25
  1.2000000E-02    1.0000014E-24
  1.2035000E-02    1.0000023E-24
  1.2070000E-02    9.9999953E-25
  1.2105000E-02    1.0000007E-24
  1.2140000E-02    1.0000025E-24
  1.2175000E-02    9.9999608E-25
  1.2210000E-02    9.9999322E-25
  1.2245000E-02    1.0000036E-24
  1.2280000E-02    1.0000097E-24
  1.2315000E-02    9.9999785E-25
  1.2350000E-02    9.9998730E-25
  1.2385000E-02    9.9999982E-25
  1.2420000E-02    1.0000177E-24
  1.2455000E-02    1.0000055E-24
  1.2490000E-02    9.9997744E-25
  1.2525000E-02    9.9998681E-25
  1.2560000E-02    1.0000305E-24
  1.2595000E-02    1.0000292E-24
  1.2630000E-02    9.9996265E-25
  1.2665000E-02    9.9994440E-25
  1.2700000E-02    1.0000406E-24
  1.2735000E-02    1.0000986E-24
  1.2770000E-02    9.9996768E-25
  1.2805000E-02    9.9984008E-25
  1.2840000E-02    1.0000042E-24
  1.2875000E-02    1.0002455E-24
  1.2910000E-02    1.0000618E-24
  1.2945000E-02    9.9964405E-25
  1.2980000E-02    9.9980340E-25
  1.3015000E-02    1.0004798E-24
  1.3050000E-02    1.0004378E-24
  1.3085000E-02    9.9941035E-25
  1.3120000E-02    9.9916935E-25
  1.3155000E-02    1.0006359E-24
  1.3190000E-02    1.0014316E-24
  1.3225000E-02    9.9947503E-25
  1.3260000E-02    9.9770207E-25
  1.3295000E-02    1.0000949E-24
  1.3330000E-02    1.0034564E-24
  1.3365000E-02    1.0008985E-24
  1.3400000E-02    9.9512831E-25
  1.3435000E-02    9.9719690E-25
  1.3470000E-02    1.0063793E-24
  1.3505000E-02    1.0060795E-24
  1.3540000E-02    9.9240684E-25
  1.3575000E-02    9.8871655E-25
  1.3610000E-02    1.0077686E-24
  1.3645000E-02    1.0189924E-24
  1.3680000E-02    9.9437781E-25
  1.3715000E-02    9.7037681E-25
  1.3750000E-02    9.9916314E-25
  1.3785000E-02    1.0431507E-24
  1.3820000E-02    1.0145055E-24
  1.3855000E-02    9.4140245E-25
  1.3890000E-02    9.6072283E-25
  1.3925000E-02    1.0732741E-24
  1.3960000E-02    1.0799115E-24
  1.3995000E-02    9.1826949E-25
  1.4030000E-02    8.5850894E-25
  1.4065000E-02    1.0744451E-24
  1.4100000E-02    1.2282138E-24
  1.4135000E-02    9.6366055E-25
  1.4170000E-02    6.5884578E-25
  1.4205000E-02    9.4540463E-25
  1.4240000E-02    1.4745858E-24
  1.4275000E-02    1.2279902E-24
  1.4310000E-02    3.8951560E-25
  1.4345000E-02    4.7981651E-25
  1.4380000E-02    1.7110689E-24
  1.4415000E-02    1.9704071E-24
  1.4450000E-02    2.9051809E-25
  1.4485000E-02   -6.1212140E-25
  1.4520000E-02    1.4995959E-24
  1.4555000E-02    3.4572807E-24
  1.4590000E-02    1.0729240E-24
  1.4625000E-02   -2.4710247E-24
  1.4660000E-02   -2.1456023E-25
  1.4695000E-02    5.5346655E-24
  1.4730000E-02    4.1764272E-24
  1.4765000E-02   -4.3964382E-24
  1.4800000E-02   -5.2267521E-24
  1.4835000E-02    6.6118120E-24
  1.4870000E-02    1.1591521E-23
  1.4905000E-02   -3.4811229E-24
  1.4940000E-02   -1.5349739E-23
  1.4975000E-02    1.9988499E-24
  1.5010000E-02    2.4269803E-23
  1.5045000E-02    7.1590161E-24
  1.5080000E-02   -2.9577440E-23
  1.5115000E-02   -1.7571468E-23
  1.5150000E-02    3.7656512E-23
  1.5185000E-02    3.8878375E-23
  1.5220000E-02   -3.7703235E-23
  1.5255000E-02   -6.4391396E-23
  1.5290000E-02    3.3385843E-23
  1.5325000E-02    1.0243520E-22
  1.5360000E-02   -1.0610528E-23
  1.5395000E-02   -1.4335962E-22
  1.5430000E-02   -3.0449829E-23
  1.5465000E-02    1.9019229E-22
  1.5500000E-02    1.0684013E-22
  1.5535000E-02   -2.2497710E-22
  1.5570000E-02   -2.1952293E-22
  1.5605000E-02    2.3896374E-22
  1.5640000E-02    3.8295143E-22
  1.5675001E-02   -1.9901662E-22
  1.5710000E-02   -5.8921144E-22
  1.5745001E-02    7.8809356E-23
  1.5780000E-02    8.3446141E-22
  1.5814999E-02    1.7224595E-22
  1.5850000E-02   -1.0797516E-21
  1.5884999E-02   -5.9320472E-22
  1.5920000E-02    1.2746501E-21
  1.5954999E-02    1.2353742E-21
  1.5990000E-02   -1.3168840E-21
  1.6024999E-02   -2.1163065E-21
  1.6060000E-02    1.0781586E-21
  1.6094999E-02    3.2306201E-21
  1.6130000E-02   -3.7148134E-22
  1.6164999E-02   -4.4894024E-21
  1.6200000E-02   -1.0074242E-21
  1.6235000E-02    5.7171182E-21
  1.6270000E-02    3.2867618E-21
  1.6305000E-02   -6.5821399E-21
  1.6340001E-02   -6.6391083E-21
  1.6375000E-02    6.5957120E-21
  1.6410001E-02    1.1138246E-20
  1.6445000E-02   -5.0634415E-21
  1.6480001E-02   -1.6620603E-20
  1.6515000E-02    1.1342289E-21
  1.6550001E-02    2.2582725E-20
  1.6585000E-02    6.1603699E-21
  1.6620001E-02   -2.7996238E-20
  1.6655000E-02   -1.7723455E-20
  1.6690001E-02    3.1193246E-20
  1.6725000E-02    3.4172311E-20
  1.6759999E-02   -2.9732603E-20
  1.6795000E-02   -5.5436565E-20
  1.6829999E-02    2.0434872E-20
  1.6865000E-02    8.0304368E-20
  1.6899999E-02    4.6878906E-22
  1.6935000E-02   -1.0581885E-19
  1.6969999E-02   -3.6857129E-20
  1.7005000E-02    1.2672682E-19
  1.7039999E-02    9.1950993E-20
  1.7075000E-02   -1.3497795E-19
  1.7109999E-02   -1.6706102E-19
  1.7145000E-02    1.1959905E-19
  1.7180000E-02    2.5997736E-19
  1.7215000E-02   -6.7051765E-20
  1.7250000E-02   -3.6293433E-19
  1.7285001E-02   -3.7471123E-20
  1.7320000E-02    4.6052914E-19
  1.7355001E-02    2.0768295E-19
  1.7390000E-02   -5.2781309E-19
  1.7425001E-02   -4.5234573E-19
  1.7460000E-02    5.2933779E-19
  1.7495001E-02    7.7001649E-19
  1.7530000E-02   -4.1981117E-19
  1.7565001E-02   -1.1424685E-18
  1.7600000E-02    1.4742132E-19
  1.7635001E-02    1.5274911E-18
  1.7670000E-02    3.3925825E-19
  1.7704999E-02   -1.8521978E-18
  1.7740000E-02   -1.0798738E-18
  1.7774999E-02    2.0087200E-18
  1.7810000E-02    2.0861557E-18
  1.7844999E-02   -1.8546791E-18
  1.7880000E-02   -3.3214610E-18
  1.7914999E-02    1.2214825E-18
  1.7950000E-02    4.6777936E-18
  1.7984999E-02    6.6687010E-20
  1.8020000E-02   -5.9536858E-18
  1.8054999E-02   -2.1602719E-18
  1.8090000E-02    6.8383195E-18
  1.8124999E-02    5.1374521E-18
  1.8160000E-02   -6.9087506E-18
  1.8195000E-02   -8.9430020E-18
  1.8230001E-02    5.6498417E-18
  1.8265000E-02    1.3319617E-17
  1.8300001E-02   -2.5040773E-18
  1.8335000E-02   -1.7739098E-17
  1.8370001E-02   -3.0387330E-18
  1.8405000E-02    2.1349882E-17
  1.8440001E-02    1.1310189E-17
  1.8475000E-02   -2.2959754E-17
  1.8510001E-02   -2.2291136E-17
  1.8545000E-02    2.1080255E-17
  1.8580001E-02    3.5413366E-17
  1.8615000E-02   -1.4054598E-17
  1.8650001E-02   -4.9360491E-17
  1.8685000E-02    2.9379385E-19
  1.8719999E-02    6.1907282E-17
  1.8755000E-02    2.1370382E-17
  1.8789999E-02   -6.9852928E-17
  1.8825000E-02   -5.1220321E-17
  1.8859999E-02    6.9112912E-17
  1.8895000E-02    8.8108486E-17
  1.8929999E-02   -5.5037577E-17
  1.8965000E-02   -1.2891013E-16
  1.8999999E-02    2.3013462E-17
  1.9035000E-02    1.6806398E-16
  1.9069999E-02    3.0624850E-17
  1.9105000E-02   -1.9735817E-16
  1.9140000E-02   -1.0738671E-16
  1.9175000E-02    2.0611375E-16
  1.9210000E-02    2.0521135E-16
  1.9245001E-02   -1.8194652E-16
  1.9280000E-02   -3.1701741E-16
  1.9315001E-02    1.1225485E-16
  1.9350000E-02    4.2948821E-16
  1.9385001E-02    1.3516851E-17
  1.9420000E-02   -5.2244082E-16
  1.9455001E-02   -2.0086170E-16
  1.9490000E-02    5.6918676E-16
  1.9525001E-02    4.4668288E-16
  1.9560000E-02   -5.3832115E-16
  1.9595001E-02   -7.3564160E-16
  1.9630000E-02    3.9725721E-16
  1.9664999E-02    1.0371105E-15
  1.9700000E-02   -1.1764355E-16
  1.9734999E-02   -1.3034902E-15
  1.9770000E-02   -3.1735527E-16
  1.9804999E-02    1.4709082E-15
  1.9840000E-02    9.0463849E-16
  1.9874999E-02   -1.4632634E-15
  1.9910000E-02   -1.6124408E-15
  1.9944999E-02    1.2004382E-15
  1.9980000E-02    2.3729819E-15
  2.0014999E-02   -6.1080838E-16
  2.0050000E-02   -3.0782880E-15
  2.0085000E-02   -3.5193499E-16
  2.0120000E-02    3.5816682E-15
  2.0155000E-02    1.6894188E-15
  2.0190001E-02   -3.7066136E-15
  2.0225000E-02   -3.3384982E-15
  2.0260001E-02    3.2651909E-15
  2.0295000E-02    5.1545563E-15
  2.0330001E-02   -2.0861132E-15
  2.0365000E-02   -6.9019844E-15
  2.0400001E-02    5.1948693E-17
  2.0435000E-02    8.2568280E-15
  2.0470001E-02    2.8576577E-15
  2.0505000E-02   -8.8264137E-15
  2.0540001E-02   -6.5223786E-15
  2.0575000E-02    8.1891662E-15
  2.0609999E-02    1.0644249E-14
  2.0645000E-02   -5.9554734E-15
  2.0679999E-02   -1.4727104E-14
  2.0715000E-02    1.8473767E-15
  2.0749999E-02    1.8082744E-14
  2.0785000E-02    4.2095208E-15
  2.0819999E-02   -1.9872148E-14
  2.0855000E-02   -1.1993974E-14
  2.0889999E-02    1.9189435E-14
  2.0925000E-02    2.0912525E-14
  2.0959999E-02   -1.5188908E-14
  2.0995000E-02   -2.9956645E-14
  2.1029999E-02    7.2507520E-15
  2.1065000E-02    3.7717476E-14
  2.1100000E-02    4.8318605E-15
  2.1135001E-02   -4.2470852E-14
  2.1170000E-02   -2.0666022E-14
  2.1205001E-02    4.2348842E-14
  2.1240000E-02    3.9104262E-14
  2.1275001E-02   -3.5598088E-14
  2.1310000E-02   -5.8167392E-14
  2.1345001E-02    2.0908217E-14
  2.1380000E-02    7.5072517E-14
  2.1415001E-02    2.2169605E-15
  2.1450000E-02   -8.6410073E-14
  2.1485001E-02   -3.3097446E-14
  2.1520000E-02    8.8481597E-14
  2.1555001E-02    6.9584021E-14
  2.1590000E-02   -7.7806095E-14
  2.1624999E-02   -1.0791560E-13
  2.1660000E-02    5.1752334E-14
  2.1694999E-02    1.4278875E-13
  2.1730000E-02   -9.2447158E-15
  2.1764999E-02   -1.6770697E-13
  2.1800000E-02   -4.8561863E-14
  2.1834999E-02    1.7563674E-13
  2.1870000E-02    1.1775455E-13
  2.1904999E-02   -1.5995606E-13
  2.1940000E-02   -1.9141363E-13
  2.1974999E-02    1.1563973E-13
  2.2010000E-02    2.5978360E-13
  2.2045000E-02   -4.0537350E-14
  2.2080000E-02   -3.1093780E-13
  2.2115000E-02   -6.3408263E-14
  2.2150001E-02    3.3202041E-13
  2.2185000E-02    1.8925517E-13
  2.2220001E-02   -3.1096452E-13
  2.2255000E-02   -3.2468426E-13
  2.2290001E-02    2.3862395E-13
  2.2325000E-02    4.5236270E-13
  2.2360001E-02   -1.1101755E-13
  2.2395000E-02   -5.5122237E-13
  2.2430001E-02   -6.8602987E-14
  2.2465000E-02    5.9866364E-13
  2.2500001E-02    2.8824688E-13
  2.2535000E-02   -5.7362757E-13
  2.2569999E-02   -5.2666324E-13
  2.2605000E-02    4.6026366E-13
  2.2639999E-02    7.5414295E-13
  2.2675000E-02   -2.5167536E-13
  2.2709999E-02   -9.3483001E-13
  2.2745000E-02   -4.6638454E-14
  2.2779999E-02    1.0306019E-12
  2.2815000E-02    4.1451600E-13
  2.2849999E-02   -1.0062836E-12
  2.2885000E-02   -8.1652388E-13
  2.2919999E-02    8.3566319E-13
  2.2955000E-02    1.2035371E-12
  2.2990000E-02   -5.0766655E-13
  2.3025000E-02   -1.5168684E-12
  2.3060000E-02    3.1551818E-14
  2.3095001E-02    1.6947813E-12
  2.3130000E-02    5.5972284E-13
  2.3165001E-02   -1.6810326E-12
  2.3200000E-02   -1.2089924E-12
  2.3235001E-02    1.4344568E-12
  2.3270000E-02    1.8380323E-12
  2.3305001E-02   -9.3838012E-13
  2.3340000E-02   -2.3545059E-12
  2.3375001E-02    2.0838168E-13
  2.3410000E-02    2.6625598E-12
  2.3445001E-02    7.0320160E-13
  2.3480000E-02   -2.6762472E-12
  2.3514999E-02   -1.7074491E-12
  2.3550000E-02    2.3339883E-12
  2.3584999E-02    2.6843753E-12
  2.3620000E-02   -1.6126103E-12
  2.3654999E-02   -3.4945172E-12
  2.3690000E-02    5.3791720E-13
  2.3724999E-02    3.9952919E-12
  2.3760000E-02    8.0957875E-13
  2.3794999E-02   -4.0611906E-12
  2.3830000E-02   -2.2964059E-12
  2.3864999E-02    3.6049041E-12
  2.3900000E-02    3.7458027E-12
  2.3934999E-02   -2.5966204E-12
  2.3970000E-02   -4.9555308E-12
  2.4005000E-02    1.0784184E-12
  2.4040001E-02    5.7227187E-12
  2.4075000E-02    8.3009169E-13
  2.4110001E-02   -5.8723985E-12
  2.4145000E-02   -2.9358280E-12
  2.4180001E-02    5.2872992E-12
  2.4215000E-02    4.9885868E-12
  2.4250001E-02   -3.9331845E-12
  2.4285000E-02   -6.7074441E-12
  2.4320001E-02    1.8764853E-12
  2.4355000E-02    7.8162364E-12
  2.4390001E-02    7.1085883E-13
  2.4425000E-02   -8.0831314E-12
  2.4460001E-02   -3.5603152E-12
  2.4495000E-02    7.3597257E-12
  2.4529999E-02    6.3319241E-12
  2.4565000E-02   -5.6126293E-12
  2.4599999E-02   -8.6522777E-12
  2.4635000E-02    2.9433990E-12
  2.4669999E-02    1.0163227E-11
  2.4705000E-02    4.0923279E-13
  2.4739999E-02   -1.0573475E-11
  2.4775000E-02   -4.0865761E-12
  2.4809999E-02    9.7073868E-12
  2.4845000E-02    7.6461303E-12
  2.4879999E-02   -7.5423921E-12
  2.4915000E-02   -1.0614536E-11
  2.4950000E-02    4.2285520E-12
  2.4985000E-02    1.2550729E-11
  2.5020000E-02   -8.4567383E-14
  2.5055001E-02   -1.3109852E-11
  2.5090000E-02   -4.4298419E-12
  2.5125001E-02    1.2100760E-11
  2.5160000E-02    8.7653712E-12
  2.5195001E-02   -9.5260510E-12
  2.5230000E-02   -1.2351633E-11
  2.5265001E-02    5.5982571E-12
  2.5300000E-02    1.4675238E-11
  2.5335001E-02   -7.2584885E-13
  2.5370000E-02   -1.5354945E-11
  2.5405001E-02   -4.5289467E-12
  2.5440000E-02    1.4203784E-11
  2.5474999E-02    9.5178917E-12
  2.5510000E-02   -1.1267665E-11
  2.5544999E-02   -1.3591203E-11
  2.5580000E-02    6.8328420E-12
  2.5614999E-02    1.6188053E-11
  2.5650000E-02   -1.3987246E-12
  2.5684999E-02   -1.6918337E-11
  2.5720000E-02   -4.3810979E-12
  2.5754999E-02    1.5624517E-11
  2.5790000E-02    9.7824726E-12
  2.5824999E-02   -1.2413053E-11
  2.5860000E-02   -1.4108760E-11
  2.5895000E-02    7.6483767E-12
  2.5930000E-02    1.6787757E-11
  2.5965000E-02   -1.9104967E-12
  2.6000001E-02   -1.7454605E-11
  2.6035000E-02   -4.0805007E-12
  2.6070001E-02    1.6006299E-11
  2.6105000E-02    9.5608738E-12
  2.6140001E-02   -1.2620772E-11
  2.6175000E-02   -1.3828040E-11
  2.6210001E-02    7.7359204E-12
  2.6245000E-02    1.6338436E-11
  2.6280001E-02   -1.9916818E-12
  2.6315000E-02   -1.6784317E-11
  2.6350001E-02   -3.8587167E-12
  2.6385000E-02    1.5135301E-11
  2.6419999E-02    9.0506821E-12
  2.6455000E-02   -1.1644636E-11
  2.6489999E-02   -1.2915715E-11
  2.6525000E-02    6.8114711E-12
  2.6559999E-02    1.4971436E-11
  2.6595000E-02   -1.3126421E-12
  2.6629999E-02   -1.4989031E-11
  2.6665000E-02   -4.0938932E-12
  2.6699999E-02    1.3021310E-11
  2.6735000E-02    8.6724837E-12
  2.6769999E-02   -9.3952910E-12
  2.6805000E-02   -1.1813074E-11
  2.6839999E-02    4.6633270E-12
  2.6875000E-02    1.3113013E-11
  2.6910000E-02    4.7290074E-13
  2.6945001E-02   -1.2433656E-11
  2.6980000E-02   -5.2617884E-12