 -4.8000002E-03    1.0000000E-24
 -4.7650002E-03    1.0000000E-24
 -4.7300002E-03    1.0000001E-24
 -4.6950001E-03    1.0000002E-24
 -4.6600001E-03    1.0000001E-24
 -4.6250001E-03    1.0000001E-24
 -4.5900000E-03    1.0000001E-24
 -4.5550000E-03    1.0000001E-24
 -4.5200000E-03    1.0000001E-24
 -4.4849999E-03    1.0000002E-24
 -4.4499999E-03    1.0000001E-24
 -4.4149999E-03    1.0000001E-24
 -4.3799998E-03    1.0000002E-24
 -4.3449998E-03    1.0000002E-24
 -4.3100002E-03    1.0000001E-24
 -4.2750002E-03    1.0000000E-24
 -4.2400002E-03    9.9999992E-25
 -4.2050001E-03    9.9999982E-25
 -4.1700001E-03    1.0000001E-24
 -4.1350001E-03    1.0000001E-24
 -4.1000000E-03    1.0000001E-24
 -4.0650000E-03    9.9999992E-25
 -4.0300000E-03    9.9999982E-25
 -3.9949999E-03    1.0000000E-24
 -3.9599999E-03    1.0000001E-24
 -3.9249999E-03    1.0000002E-24
 -3.8900001E-03    1.0000002E-24
 -3.8550000E-03    1.0000001E-24
 -3.8200000E-03    1.0000000E-24
 -3.7849999E-03    1.0000000E-24
 -3.7499999E-03    1.0000004E-24
 -3.7150001E-03    1.0000004E-24
 -3.6800001E-03    1.0000000E-24
 -3.6450000E-03    9.9999972E-25
 -3.6100000E-03    1.0000000E-24
 -3.5750000E-03    9.9999992E-25
 -3.5399999E-03    9.9999982E-25
 -3.5049999E-03    1.0000003E-24
 -3.4700001E-03    1.0000006E-24
 -3.4350001E-03    1.0000002E-24
 -3.4000000E-03    9.9999982E-25
 -3.3650000E-03    1.0000000E-24
 -3.3300000E-03    1.0000000E-24
 -3.2949999E-03    9.9999972E-25
 -3.2599999E-03    9.9999972E-25
 -3.2250001E-03    1.0000003E-24
 -3.1900001E-03    1.0000004E-24
 -3.1550000E-03    1.0000001E-24
 -3.1200000E-03    9.9999992E-25
 -3.0850000E-03    9.9999982E-25
 -3.0499999E-03    1.0000000E-24
 -3.0149999E-03    1.0000003E-24
 -2.9800001E-03    1.0000003E-24
 -2.9450001E-03    1.0000002E-24
 -2.9100000E-03    9.9999982E-25
 -2.8750000E-03    9.9999982E-25
 -2.8400000E-03    1.0000000E-24
 -2.8049999E-03    1.0000001E-24
 -2.7699999E-03    1.0000001E-24
 -2.7350001E-03    1.0000002E-24
 -2.7000001E-03    1.0000002E-24
 -2.6650000E-03    9.9999992E-25
 -2.6300000E-03    1.0000000E-24
 -2.5950000E-03    1.0000008E-24
 -2.5599999E-03    1.0000009E-24
 -2.5249999E-03    1.0000003E-24
 -2.4900001E-03    9.9999972E-25
 -2.4550001E-03    9.9999982E-25
 -2.4200000E-03    1.0000000E-24
 -2.3850000E-03    1.0000002E-24
 -2.3500000E-03    1.0000002E-24
 -2.3149999E-03    9.9999982E-25
 -2.2799999E-03    9.9999963E-25
 -2.2450001E-03    9.9999992E-25
 -2.2100001E-03    1.0000001E-24
 -2.1750000E-03    1.0000001E-24
 -2.1400000E-03    1.0000000E-24
 -2.1050000E-03    1.0000000E-24
 -2.0699999E-03    1.0000003E-24
 -2.0349999E-03    1.0000005E-24
 -2.0000001E-03    1.0000006E-24
 -1.9650001E-03    1.0000005E-24
 -1.9300000E-03    1.0000001E-24
 -1.8950000E-03    9.9999953E-25
 -1.8600000E-03    9.9999963E-25
 -1.8250000E-03    1.0000001E-24
 -1.7900000E-03    1.0000001E-24
 -1.7550000E-03    9.9999972E-25
 -1.7199999E-03    9.9999992E-25
 -1.6850000E-03    1.0000005E-24
 -1.6500000E-03    1.0000004E-24
 -1.6150000E-03    1.0000001E-24
 -1.5800000E-03    1.0000002E-24
 -1.5450000E-03    1.0000006E-24
 -1.5100000E-03    1.0000005E-24
 -1.4750001E-03    9.9999992E-25
 -1.4400000E-03    9.9999963E-25
 -1.4050000E-03    9.9999963E-25
 -1.3700000E-03    1.0000000E-24
 -1.3350000E-03    1.0000005E-24
 -1.3000000E-03    1.0000001E-24
 -1.2650000E-03    9.9999953E-25
 -1.2300001E-03    9.9999963E-25
 -1.1950000E-03    1.0000005E-24
 -1.1600000E-03    1.0000007E-24
 -1.1250000E-03    1.0000000E-24
 -1.0900000E-03    9.9999943E-25
 -1.0550000E-03    9.9999953E-25
 -1.0200000E-03    1.0000000E-24
 -9.8500005E-04    1.0000005E-24
 -9.5000002E-04    1.0000004E-24
 -9.1499998E-04    1.0000005E-24
 -8.8000001E-04    1.0000008E-24
 -8.4499997E-04    9.9999992E-25
 -8.1000000E-04    9.9999923E-25
 -7.7500002E-04    1.0000000E-24
 -7.3999999E-04    1.0000004E-24
 -7.0500001E-04    1.0000000E-24
 -6.6999998E-04    9.9999972E-25
 -6.3500000E-04    1.0000000E-24
 -6.0000003E-04    1.0000004E-24
 -5.6499999E-04    1.0000007E-24
 -5.3000002E-04    1.0000001E-24
 -4.9499999E-04    9.9999933E-25
 -4.6000001E-04    9.9999992E-25
 -4.2500001E-04    1.0000007E-24
 -3.9000000E-04    1.0000006E-24
 -3.5500000E-04    9.9999972E-25
 -3.1999999E-04    9.9999923E-25
 -2.8499999E-04    9.9999963E-25
 -2.5000001E-04    1.0000005E-24
 -2.1499999E-04    1.0000006E-24
 -1.8000000E-04    1.0000002E-24
 -1.4500000E-04    1.0000004E-24
 -1.1000000E-04    1.0000010E-24
 -7.5000004E-05    1.0000003E-24
 -3.9999999E-05    9.9999923E-25
 -4.9999999E-06    9.9999923E-25
  2.9999999E-05    1.0000001E-24
  6.5000000E-05    1.0000004E-24
  9.9999997E-05    9.9999982E-25
  1.3499999E-04    9.9999963E-25
  1.7000000E-04    9.9999992E-25
  2.0500000E-04    9.9999972E-25
  2.3999999E-04    1.0000000E-24
  2.7500000E-04    1.0000007E-24
  3.1000000E-04    1.0000003E-24
  3.4500001E-04    9.9999943E-25
  3.8000001E-04    9.9999953E-25
  4.1499999E-04    1.0000003E-24
  4.4999999E-04    1.0000006E-24
  4.8500000E-04    1.0000006E-24
  5.2000000E-04    1.0000003E-24
  5.5499998E-04    1.0000004E-24
  5.9000001E-04    1.0000007E-24
  6.2499999E-04    1.0000001E-24
  6.6000002E-04    9.9999943E-25
  6.9500000E-04    9.9999953E-25
  7.3000003E-04    9.9999963E-25
  7.6500000E-04    9.9999933E-25
  7.9999998E-04    9.9999963E-25
  8.3500001E-04    1.0000003E-24
  8.6999999E-04    1.0000008E-24
  9.0500002E-04    1.0000009E-24
  9.4000000E-04    1.0000007E-24
  9.7499997E-04    1.0000003E-24
  1.0100000E-03    9.9999953E-25
  1.0450000E-03    9.9999923E-25
  1.0800000E-03    9.9999992E-25
  1.1150000E-03    1.0000009E-24
  1.1500000E-03    1.0000009E-24
  1.1849999E-03    1.0000006E-24
  1.2200000E-03    9.9999982E-25
  1.2550000E-03    9.9999864E-25
  1.2900000E-03    9.9999874E-25
  1.3250000E-03    1.0000001E-24
  1.3600000E-03    1.0000013E-24
  1.3950000E-03    1.0000015E-24
  1.4299999E-03    1.0000002E-24
  1.4650000E-03    9.9999884E-25
  1.5000000E-03    9.9999933E-25
  1.5350000E-03    1.0000002E-24
  1.5700000E-03    9.9999992E-25
  1.6050000E-03    9.9999963E-25
  1.6400000E-03    1.0000003E-24
  1.6749999E-03    1.0000008E-24
  1.7100000E-03    1.0000006E-24
  1.7450000E-03    1.0000001E-24
  1.7800000E-03    9.9999982E-25
  1.8150000E-03    9.9999963E-25
  1.8500000E-03    9.9999943E-25
  1.8850000E-03    9.9999963E-25
  1.9200000E-03    1.0000005E-24
  1.9550000E-03    1.0000011E-24
  1.9900000E-03    1.0000010E-24
  2.0250001E-03    1.0000004E-24
  2.0600001E-03    9.9999943E-25
  2.0949999E-03    9.9999913E-25
  2.1299999E-03    9.9999972E-25
  2.1650000E-03    1.0000004E-24
  2.2000000E-03    1.0000005E-24
  2.2350000E-03    9.9999972E-25
  2.2700001E-03    9.9999933E-25
  2.3050001E-03    1.0000007E-24
  2.3399999E-03    1.0000017E-24
  2.3749999E-03    1.0000000E-24
  2.4100000E-03    9.9999815E-25
  2.4450000E-03    9.9999943E-25
  2.4800000E-03    1.0000016E-24
  2.5150001E-03    1.0000015E-24
  2.5500001E-03    1.0000005E-24
  2.5849999E-03    1.0000001E-24
  2.6199999E-03    9.9999953E-25
  2.6550000E-03    9.9999913E-25
  2.6900000E-03    9.9999972E-25
  2.7250000E-03    1.0000006E-24
  2.7600001E-03    1.0000005E-24
  2.7950001E-03    9.9999933E-25
  2.8299999E-03    9.9999913E-25
  2.8649999E-03    1.0000007E-24
  2.9000000E-03    1.0000023E-24
  2.9350000E-03    1.0000021E-24
  2.9700000E-03    1.0000004E-24
  3.0050001E-03    9.9999864E-25
  3.0400001E-03    9.9999844E-25
  3.0749999E-03    9.9999982E-25
  3.1099999E-03    1.0000001E-24
  3.1450000E-03    9.9999982E-25
  3.1800000E-03    1.0000002E-24
  3.2150000E-03    1.0000002E-24
  3.2500001E-03    9.9999963E-25
  3.2850001E-03    9.9999992E-25
  3.3199999E-03    1.0000005E-24
  3.3549999E-03    1.0000003E-24
  3.3900000E-03    1.0000001E-24
  3.4250000E-03    9.9999943E-25
  3.4600000E-03    9.9999913E-25
  3.4950001E-03    1.0000006E-24
  3.5300001E-03    1.0000028E-24
  3.5649999E-03    1.0000021E-24
  3.5999999E-03    9.9999933E-25
  3.6350000E-03    9.9999815E-25
  3.6700000E-03    9.9999913E-25
  3.7050000E-03    1.0000000E-24
  3.7400001E-03    1.0000002E-24
  3.7750001E-03    1.0000002E-24
  3.8099999E-03    1.0000005E-24
  3.8449999E-03    1.0000004E-24
  3.8800000E-03    9.9999913E-25
  3.9149998E-03    9.9999864E-25
  3.9499998E-03    9.9999972E-25
  3.9849998E-03    1.0000008E-24
  4.0199999E-03    1.0000006E-24
  4.0549999E-03    1.0000004E-24
  4.0899999E-03    1.0000005E-24
  4.1250000E-03    1.0000002E-24
  4.1600000E-03    9.9999963E-25
  4.1950000E-03    1.0000000E-24
  4.2300001E-03    1.0000005E-24
  4.2650001E-03    1.0000002E-24
  4.3000001E-03    9.9999972E-25
  4.3350002E-03    9.9999992E-25
  4.3700002E-03    1.0000010E-24
  4.4049998E-03    1.0000013E-24
  4.4399998E-03    9.9999953E-25
  4.4749998E-03    9.9999795E-25
  4.5099999E-03    9.9999913E-25
  4.5449999E-03    1.0000011E-24
  4.5799999E-03    1.0000018E-24
  4.6150000E-03    1.0000008E-24
  4.6500000E-03    9.9999903E-25
  4.6850001E-03    9.9999824E-25
  4.7200001E-03    9.9999953E-25
  4.7550001E-03    1.0000008E-24
  4.7900002E-03    1.0000014E-24
  4.8250002E-03    1.0000010E-24
  4.8600002E-03    9.9999943E-25
  4.8949998E-03    9.9999834E-25
  4.9299998E-03    9.9999933E-25
  4.9649999E-03    1.0000002E-24
  4.9999999E-03    1.0000006E-24
  5.0349999E-03    1.0000015E-24
  5.0700000E-03    1.0000011E-24
  5.1050000E-03    9.9999923E-25
  5.1400000E-03    9.9999864E-25
  5.1750001E-03    1.0000006E-24
  5.2100001E-03    1.0000023E-24
  5.2450001E-03    1.0000008E-24
  5.2800002E-03    9.9999795E-25
  5.3150002E-03    9.9999844E-25
  5.3500002E-03    1.0000006E-24
  5.3849998E-03    1.0000009E-24
  5.4199998E-03    1.0000009E-24
  5.4549999E-03    1.0000010E-24
  5.4899999E-03    9.9999893E-25
  5.5249999E-03    9.9999795E-25
  5.5600000E-03    9.9999992E-25
  5.5950000E-03    1.0000010E-24
  5.6300000E-03    1.0000009E-24
  5.6650001E-03    1.0000011E-24
  5.7000001E-03    9.9999953E-25
  5.7350001E-03    9.9999765E-25
  5.7700002E-03    9.9999844E-25
  5.8050002E-03    1.0000008E-24
  5.8400002E-03    1.0000033E-24
  5.8749998E-03    1.0000033E-24
  5.9099998E-03    9.9999923E-25
  5.9449999E-03    9.9999598E-25
  5.9799999E-03    9.9999815E-25
  6.0149999E-03    1.0000015E-24
  6.0500000E-03    1.0000020E-24
  6.0850000E-03    1.0000009E-24
  6.1200000E-03    9.9999923E-25
  6.1550001E-03    9.9999864E-25
  6.1900001E-03    9.9999953E-25
  6.2250001E-03    1.0000003E-24
  6.2600002E-03    9.9999913E-25
  6.2950002E-03    9.9999884E-25
  6.3299998E-03    1.0000007E-24
  6.3649998E-03    1.0000028E-24
  6.3999998E-03    1.0000003E-24
  6.4349999E-03    9.9999588E-25
  6.4699999E-03    9.9999913E-25
  6.5049999E-03    1.0000076E-24
  6.5400000E-03    1.0000040E-24
  6.5750000E-03    9.9998898E-25
  6.6100000E-03    9.9999134E-25
  6.6450001E-03    1.0000161E-24
  6.6800001E-03    1.0000178E-24
  6.7150001E-03    9.9997724E-25
  6.7500002E-03    9.9996580E-25
  6.7850002E-03    1.0000314E-24
  6.8199998E-03    1.0000630E-24
  6.8549998E-03    9.9995900E-25
  6.8899998E-03    9.9988741E-25
  6.9249999E-03    1.0000489E-24
  6.9599999E-03    1.0001980E-24
  6.9949999E-03    9.9995496E-25
  7.0300000E-03    9.9965854E-25
  7.0650000E-03    1.0000070E-24
  7.1000000E-03    1.0005728E-24
  7.1350001E-03    1.0001094E-24
  7.1700001E-03    9.9907301E-25
  7.2050001E-03    9.9962156E-25
  7.2400002E-03    1.0014493E-24
  7.2750002E-03    1.0009367E-24
  7.3099998E-03    9.9782395E-25
  7.3449998E-03    9.9799227E-25
  7.3799998E-03    1.0031225E-24
  7.4149999E-03    1.0039688E-24
  7.4499999E-03    9.9578800E-25
  7.4850000E-03    9.9259183E-25
  7.5200000E-03    1.0051676E-24
  7.5550000E-03    1.0131902E-24
  7.5900001E-03    9.9466111E-25
  7.6250001E-03    9.7745585E-25
  7.6600001E-03    1.0033628E-24
  7.6950002E-03    1.0370748E-24
  7.7300002E-03    1.0033473E-24
  7.7650002E-03    9.4134693E-25
  7.7999998E-03    9.8061978E-25
  7.8349998E-03    1.0890397E-24
  7.8699999E-03    1.0524721E-24
  7.9049999E-03    8.7106386E-25
  7.9399999E-03    8.8500284E-25
  7.9750000E-03    1.1760998E-24
  8.0100000E-03    1.2257780E-24
  8.0450000E-03    7.7813713E-25
  8.0800001E-03    5.8811853E-25
  8.1150001E-03    1.2452037E-24
  8.1500001E-03    1.7096706E-24
  8.1850002E-03    7.9675642E-25
  8.2200002E-03   -1.6362330E-25
  8.2550002E-03    1.0169082E-24
  8.2900003E-03    2.8202004E-24
  8.3250003E-03    1.4493000E-24
  8.3600003E-03   -1.7123096E-24
  8.3950004E-03   -4.1359770E-25
  8.4300004E-03    4.8275278E-24
  8.4650004E-03    4.2074744E-24
  8.5000005E-03   -4.0501488E-24
  8.5349996E-03   -5.3043137E-24
  8.5699996E-03    7.0641926E-24
  8.6049996E-03    1.2332789E-23
  8.6399997E-03   -5.2020494E-24
  8.6749997E-03   -1.8049641E-23
  8.7099997E-03    5.2243733E-24
  8.7449998E-03    3.1229151E-23
  8.7799998E-03    2.9766676E-24
  8.8149998E-03   -4.4402566E-23
  8.8499999E-03   -1.4739767E-23
  8.8849999E-03    6.5351232E-23
  8.9199999E-03    4.3014023E-23
  8.9550000E-03   -8.4226906E-23
  8.9900000E-03   -8.6640328E-23
  9.0250000E-03    1.0414997E-22
  9.0600001E-03    1.6231399E-22
  9.0950001E-03   -1.0714060E-22
  9.1300001E-03   -2.7185010E-22
  9.1650002E-03    8.3298392E-23
  9.2000002E-03    4.3217037E-22
  9.2350002E-03    4.6929375E-24
  9.2700003E-03   -6.3917373E-22
  9.3050003E-03   -1.9332897E-22
  9.3400003E-03    8.9242529E-22
  9.3750004E-03    5.5335732E-22
  9.4100004E-03   -1.1514212E-21
  9.4450004E-03   -1.1583240E-21
  9.4799995E-03    1.3502807E-21
  9.5149996E-03    2.1114983E-21
  9.5499996E-03   -1.3423096E-21
  9.5849996E-03   -3.4985572E-21
  9.6199997E-03    9.0322519E-22
  9.6549997E-03    5.3875675E-21
  9.6899997E-03    3.3144439E-22
  9.7249998E-03   -7.7402715E-21
  9.7599998E-03   -2.8589246E-21
  9.7949998E-03    1.0354068E-20
  9.8299999E-03    7.3453614E-21
  9.8649999E-03   -1.2699413E-20
  9.8999999E-03   -1.4554419E-20
  9.9350000E-03    1.3778852E-20
  9.9700000E-03    2.5262602E-20
  1.0005000E-02   -1.1889329E-20
  1.0040000E-02   -3.9989274E-20
  1.0075000E-02    4.4454233E-21
  1.0110000E-02    5.8617359E-20
  1.0145000E-02    1.2203401E-20
  1.0180000E-02   -7.9726407E-20
  1.0215000E-02   -4.2728800E-20
  1.0250000E-02    9.9733250E-20
  1.0285000E-02    9.2521838E-20
  1.0320000E-02   -1.1172588E-19
  1.0355000E-02   -1.6678834E-19
  1.0390000E-02    1.0421695E-19
  1.0425000E-02    2.6890060E-19
  1.0460000E-02   -5.9927975E-20
  1.0495000E-02   -3.9759568E-19
  1.0530000E-02   -4.4831351E-20
  1.0565000E-02    5.4291870E-19
  1.0600000E-02    2.3962613E-19
  1.0635000E-02   -6.8072141E-19
  1.0670000E-02   -5.5709332E-19
  1.0705000E-02    7.6613742E-19
  1.0740000E-02    1.0267604E-18
  1.0775000E-02   -7.2676595E-19
  1.0810000E-02   -1.6639882E-18
  1.0845000E-02    4.5739748E-19
  1.0880000E-02    2.4529106E-18
  1.0915000E-02    1.8102425E-19
  1.0950000E-02   -3.3226408E-18
  1.0985000E-02   -1.3540279E-18
  1.1020000E-02    4.1175488E-18
  1.1055000E-02    3.2326638E-18
  1.1090000E-02   -4.5644666E-18
  1.1125000E-02   -5.9528636E-18
  1.1160000E-02    4.2432657E-18
  1.1195000E-02    9.5494842E-18
  1.1230000E-02   -2.5713989E-18
  1.1265000E-02   -1.3861337E-17
  1.1300000E-02   -1.1815299E-18
  1.1335000E-02    1.8408749E-17
  1.1370000E-02    7.8286888E-18
  1.1405000E-02   -2.2253092E-17
  1.1440000E-02   -1.8126050E-17
  1.1475000E-02    2.3860955E-17
  1.1510000E-02    3.2534311E-17
  1.1545000E-02   -2.1011805E-17
  1.1580000E-02   -5.0866304E-17
  1.1615000E-02    1.0807341E-17
  1.1650000E-02    7.1821525E-17
  1.1685000E-02    1.0140843E-17
  1.1720000E-02   -9.2438797E-17
  1.1755000E-02   -4.5256113E-17
  1.1790000E-02    1.0754354E-16
  1.1825000E-02    9.7186304E-17
  1.1860000E-02   -1.0932505E-16
  1.1895000E-02   -1.6657561E-16
  1.1930000E-02    8.7245459E-17
  1.1965000E-02    2.5041523E-16
  1.2000000E-02   -2.8545808E-17
  1.2035000E-02   -3.4007370E-16
  1.2070000E-02   -8.0341869E-17
  1.2105000E-02    4.1926000E-16
  1.2140000E-02    2.5117600E-16
  1.2175000E-02   -4.6236432E-16
  1.2210000E-02   -4.8986181E-16
  1.2245000E-02    4.3384620E-16
  1.2280000E-02    7.9096937E-16
  1.2315000E-02   -2.8953550E-16
  1.2350000E-02   -1.1311291E-15
  1.2385000E-02   -1.9156267E-17
  1.2420000E-02    1.4621192E-15
  1.2455000E-02    5.3715558E-16
  1.2490000E-02   -1.7050545E-15
  1.2525000E-02   -1.2930966E-15
  1.2560000E-02    1.7477824E-15
  1.2595000E-02    2.2821276E-15
  1.2630000E-02   -1.4481463E-15
  1.2665000E-02   -3.4451481E-15
  1.2700000E-02    6.4616072E-16
  1.2735000E-02    4.6470201E-15
  1.2770000E-02    8.1208961E-16
  1.2805000E-02   -5.6580297E-15
  1.2840000E-02   -3.0368888E-15
  1.2875000E-02    6.1448704E-15
  1.2910000E-02    6.0438177E-15
  1.2945000E-02   -5.6789171E-15
  1.2980000E-02   -9.6923058E-15
  1.3015000E-02    3.7705176E-15
  1.3050000E-02    1.3621456E-14
  1.3085000E-02    6.3060518E-17
  1.3120000E-02   -1.7195524E-14
  1.3155000E-02   -6.1910337E-15
  1.3190000E-02    1.9476865E-14
  1.3225000E-02    1.4725031E-14
  1.3260000E-02   -1.9247931E-14
  1.3295000E-02   -2.5347476E-14
  1.3330000E-02    1.5105337E-14
  1.3365000E-02    3.7134009E-14
  1.3400000E-02   -5.6460993E-15
  1.3435000E-02   -4.8404965E-14
  1.3470000E-02   -1.0243256E-14
  1.3505000E-02    5.6653456E-14
  1.3540000E-02    3.3000163E-14
  1.3575000E-02   -5.8606738E-14
  1.3610000E-02   -6.1932081E-14
  1.3645000E-02    5.0478959E-14
  1.3680000E-02    9.4754743E-14
  1.3715000E-02   -2.8462225E-14
  1.3750000E-02   -1.2721530E-13
  1.3785000E-02   -1.0522228E-14
  1.3820000E-02    1.5292291E-13
  1.3855000E-02    6.7837100E-14
  1.3890000E-02   -1.6352619E-13
  1.3925000E-02   -1.4199037E-13
  1.3960000E-02    1.4937532E-13
  1.3995000E-02    2.2750440E-13
  1.4030000E-02   -1.0077099E-13
  1.4065000E-02   -3.1402699E-13
  1.4100000E-02    9.8323822E-15
  1.4135000E-02    3.8598207E-13
  1.4170000E-02    1.2709973E-13
  1.4205000E-02   -4.2308857E-13
  1.4240000E-02   -3.0675522E-13
  1.4275000E-02    4.0204840E-13
  1.4310000E-02    5.1632808E-13
  1.4345000E-02   -2.9960558E-13
  1.4380000E-02   -7.3152980E-13
  1.4415000E-02    9.6995823E-14
  1.4450000E-02    9.1600089E-13
  1.4485000E-02    2.1447763E-13
  1.4520000E-02   -1.0227939E-12
  1.4555000E-02   -6.2734258E-13
  1.4590000E-02    9.9855237E-13
  1.4625000E-02    1.1123111E-12
  1.4660000E-02   -7.9072198E-13
  1.4695000E-02   -1.6143738E-12
  1.4730000E-02    3.5769356E-13
  1.4765000E-02    2.0521566E-12
  1.4800000E-02    3.1889194E-13
  1.4835000E-02   -2.3220080E-12
  1.4870000E-02   -1.2211389E-12
  1.4905000E-02    2.3079908E-12
  1.4940000E-02    2.2834633E-12
  1.4975000E-02   -1.8982164E-12
  1.5010000E-02   -3.3855484E-12
  1.5045000E-02    1.0069167E-12
  1.5080000E-02    4.3527825E-12
  1.5115000E-02    3.9975933E-13
  1.5150000E-02   -4.9670086E-12
  1.5185000E-02   -2.2776800E-12
  1.5220000E-02    4.9894936E-12
  1.5255000E-02    4.4833243E-12
  1.5290000E-02   -4.1963273E-12
  1.5325000E-02   -6.7628333E-12
  1.5360000E-02    2.4241462E-12
  1.5395000E-02    8.7574305E-12
  1.5430000E-02    3.7874790E-13
  1.5465000E-02   -1.0030153E-11
  1.5500000E-02   -4.1036224E-12
  1.5535000E-02    1.0116347E-11
  1.5570000E-02    8.4448767E-12
  1.5605000E-02   -8.5967787E-12
  1.5640000E-02   -1.2887173E-11
  1.5675001E-02    5.1873306E-12
  1.5710000E-02    1.6726495E-11
  1.5745001E-02    1.6601016E-13
  1.5780000E-02   -1.9132558E-11
  1.5814999E-02   -7.2028828E-12
  1.5850000E-02    1.9254397E-11
  1.5884999E-02    1.5294243E-11
  1.5920000E-02   -1.6363376E-11
  1.5954999E-02   -2.3437854E-11
  1.5990000E-02    1.0018522E-11
  1.6024999E-02    3.0319757E-11
  1.6060000E-02   -2.3057866E-13
  1.6094999E-02   -3.4450824E-11
  1.6130000E-02   -1.2406693E-11
  1.6164999E-02    3.4375013E-11
  1.6200000E-02    2.6651559E-11
  1.6235000E-02   -2.8932119E-11
  1.6270000E-02   -4.0647496E-11
  1.6305000E-02    1.7541579E-11
  1.6340001E-02    5.2076097E-11
  1.6375000E-02   -4.6069577E-13
  1.6410001E-02   -5.8434799E-11
  1.6445000E-02   -2.1038045E-11
  1.6480001E-02    5.7421488E-11
  1.6515000E-02    4.4624977E-11
  1.6550001E-02   -4.7383229E-11
  1.6585000E-02   -6.7049970E-11
  1.6620001E-02    2.7762046E-11
  1.6655000E-02    8.4478154E-11
  1.6690001E-02    5.4537841E-13
  1.6725000E-02   -9.3012036E-11
  1.6759999E-02   -3.5002643E-11
  1.6795000E-02    8.9348008E-11
  1.6829999E-02    7.1499091E-11
  1.6865000E-02   -7.1476824E-11
  1.6899999E-02   -1.0471194E-10
  1.6935000E-02    3.9308050E-11
  1.6969999E-02    1.2876530E-10
  1.7005000E-02    4.9159917E-12
  1.7039999E-02   -1.3812690E-10
  1.7075000E-02   -5.6538017E-11
  1.7109999E-02    1.2862653E-10
  1.7145000E-02    1.0882102E-10
  1.7180000E-02   -9.8430042E-11
  1.7215000E-02   -1.5372205E-10
  1.7250000E-02    4.8776681E-11
  1.7285001E-02    1.8304272E-10
  1.7320000E-02    1.5700842E-11
  1.7355001E-02   -1.8981450E-10
  1.7390000E-02   -8.7214680E-11
  1.7425001E-02    1.6969501E-10
  1.7460000E-02    1.5566762E-10
  1.7495001E-02   -1.2211725E-10
  1.7530000E-02   -2.1005059E-10
  1.7565001E-02    5.0931065E-11
  1.7600000E-02    2.4021340E-10
  1.7635001E-02    3.5661973E-11
  1.7670000E-02   -2.3872956E-10
  1.7704999E-02   -1.2597264E-10
  1.7740000E-02    2.0251409E-10
  1.7774999E-02    2.0643416E-10
  1.7810000E-02   -1.3385110E-10
  1.7844999E-02   -2.6374683E-10
  1.7880000E-02    4.0560427E-11
  1.7914999E-02    2.8721375E-10
  1.7950000E-02    6.4832584E-11
  1.7984999E-02   -2.7083669E-10
  1.8020000E-02   -1.6687129E-10
  1.8054999E-02    2.1474304E-10
  1.8090000E-02    2.4963728E-10
  1.8124999E-02   -1.2560479E-10
  1.8160000E-02   -2.9950034E-10
  1.8195000E-02    1.5879503E-11
  1.8230001E-02    3.0763581E-10
  1.8265000E-02    9.8066492E-11
  1.8300001E-02   -2.7180502E-10
  1.8335000E-02   -1.9866699E-10
  1.8370001E-02    1.9699969E-10
  1.8405000E-02    2.7021008E-10
  1.8440001E-02   -9.4766930E-11
  1.8475000E-02   -3.0165728E-10
  1.8510001E-02   -1.8712981E-11
  1.8545000E-02    2.8866051E-10
  1.8580001E-02    1.2545551E-10
  1.8615000E-02   -2.3435678E-10
  1.8650001E-02   -2.0886859E-10
  1.8685000E-02    1.4876307E-10
  1.8719999E-02    2.5668845E-10
  1.8755000E-02   -4.6884052E-11
  1.8789999E-02   -2.6307614E-10
  1.8825000E-02   -5.4089670E-11
  1.8859999E-02    2.2946645E-10
  1.8895000E-02    1.3792420E-10
  1.8929999E-02   -1.6402765E-10
  1.8965000E-02   -1.9219795E-10
  1.8999999E-02    7.9879783E-11
  1.9035000E-02    2.1031225E-10
  1.9069999E-02    7.5183765E-12
  1.9105000E-02   -1.9230789E-10
  1.9140000E-02   -8.3255347E-11
  1.9175000E-02    1.4440421E-10
  1.9210000E-02    1.3554624E-10
  1.9245001E-02   -7.7450074E-11
  1.9280000E-02   -1.5754154E-10
  1.9315001E-02    4.6742783E-12
  1.9350000E-02    1.4809722E-10
  1.9385001E-02    6.0774580E-11
  1.9420000E-02   -1.1147676E-10
  1.9455001E-02   -1.0803018E-10
  1.9490000E-02    5.6162630E-11
  1.9525001E-02    1.3009301E-10
  1.9560000E-02    6.8959391E-12
  1.9595001E-02   -1.2461955E-10
  1.9630000E-02   -6.6237356E-11
  1.9664999E-02    9.3899867E-11
  1.9700000E-02    1.1170861E-10
  1.9734999E-02   -4.4150246E-11
  1.9770000E-02   -1.3591879E-10
  1.9804999E-02   -1.5694264E-11
  1.9840000E-02    1.3517830E-10
  1.9874999E-02    7.5475244E-11
  1.9910000E-02   -1.0986324E-10
  1.9944999E-02   -1.2539711E-10
  1.9980000E-02    6.4191472E-11
  2.0014999E-02    1.5750709E-10
  2.0050000E-02   -5.4498463E-12
  2.0085000E-02   -1.6688483E-10
  2.0120000E-02   -5.7244220E-11
  2.0155000E-02    1.5235875E-10
  2.0190001E-02    1.1449282E-10
  2.0225000E-02   -1.1659766E-10
  2.0260001E-02   -1.5824886E-10
  2.0295000E-02    6.5487712E-11
  2.0330001E-02    1.8321107E-10
  2.0365000E-02   -6.8463863E-12
  2.0400001E-02   -1.8764063E-10
  2.0435000E-02   -5.1290656E-11
  2.0470001E-02    1.7333347E-10
  2.0505000E-02    1.0238932E-10
  2.0540001E-02   -1.4469409E-10
  2.0575000E-02   -1.4265508E-10
  2.0609999E-02    1.0712582E-10
  2.0645000E-02    1.7137554E-10
  2.0679999E-02   -6.5213550E-11
  2.0715000E-02   -1.9020156E-10
  2.0749999E-02    2.1302564E-11
  2.0785000E-02    2.0152591E-10
  2.0819999E-02    2.4952939E-11
  2.0855000E-02   -2.0647917E-10
  2.0889999E-02   -7.5748539E-11
  2.0925000E-02    2.0331178E-10
  2.0959999E-02    1.3309923E-10
  2.0995000E-02   -1.8697334E-10
  2.1029999E-02   -1.9625956E-10
  2.1065000E-02    1.5038551E-10
  2.1100000E-02    2.5962962E-10
  2.1135001E-02   -8.7290918E-11
  2.1170000E-02   -3.1221481E-10
  2.1205001E-02   -4.1345399E-12
  2.1240000E-02    3.3928951E-10
  2.1275001E-02    1.1819225E-10
  2.1310000E-02   -3.2618108E-10
  2.1345001E-02   -2.4043345E-10
  2.1380000E-02    2.6328781E-10
  2.1415001E-02    3.4923917E-10
  2.1450000E-02   -1.5079925E-10
  2.1485001E-02   -4.2034187E-10
  2.1520000E-02    1.3382995E-12
  2.1555001E-02    4.3337497E-10
  2.1590000E-02    1.6090043E-10
  2.1624999E-02   -3.7856063E-10
  2.1660000E-02   -3.0491945E-10
  2.1694999E-02    2.6122932E-10
  2.1730000E-02    4.0062142E-10
  2.1764999E-02   -1.0229053E-10
  2.1800000E-02   -4.2727080E-10
  2.1834999E-02   -6.6044545E-11
  2.1870000E-02    3.7998868E-10
  2.1904999E-02    2.0839361E-10
  2.1940000E-02   -2.7193783E-10
  2.1974999E-02   -2.9582203E-10
  2.2010000E-02    1.3122670E-10
  2.2045000E-02    3.1400538E-10
  2.2080000E-02    6.8003359E-12
  2.2115000E-02   -2.6729169E-10
  2.2150001E-02   -1.0973376E-10
  2.2185000E-02    1.7706056E-10
  2.2220001E-02    1.5740899E-10
  2.2255000E-02   -7.4865503E-11
  2.2290001E-02   -1.4743194E-10
  2.2325000E-02   -7.6109787E-12
  2.2360001E-02    9.4995914E-11
  2.2395000E-02    4.8586732E-11
  2.2430001E-02   -2.6689245E-11
  2.2465000E-02   -4.2189911E-11
  2.2500001E-02   -2.8684196E-11
  2.2535000E-02   -5.5932841E-13
  2.2569999E-02    4.9917421E-11
  2.2605000E-02    5.6399455E-11
  2.2639999E-02   -3.0812700E-11
  2.2675000E-02   -9.9601202E-11
  2.2709999E-02   -1.9438184E-11
  2.2745000E-02    1.1042244E-10
  2.2779999E-02    7.9339979E-11
  2.2815000E-02   -8.3190906E-11
  2.2849999E-02   -1.2426449E-10
  2.2885000E-02    2.8303805E-11
  2.2919999E-02    1.3759006E-10
  2.2955000E-02    3.5087482E-11
  2.2990000E-02   -1.1289822E-10
  2.3025000E-02   -8.1314525E-11
  2.3060000E-02    6.3167464E-11
  2.3095001E-02    9.6233195E-11
  2.3130000E-02   -7.5278768E-12
  2.3165001E-02   -7.5563979E-11
  2.3200000E-02   -3.0208346E-11
  2.3235001E-02    3.1360022E-11
  2.3270000E-02    3.2953404E-11
  2.3305001E-02    9.0251617E-12
  2.3340000E-02   -9.6331120E-12
  2.3375001E-02   -3.7822731E-11
  2.3410000E-02   -4.8411858E-11
  2.3445001E-02    4.9353056E-12
  2.3480000E-02    6.0444663E-11
  2.3514999E-02    3.5478517E-12
  2.3550000E-02   -1.2138748E-10
  2.3584999E-02   -1.3209742E-10
  2.3620000E-02   -2.5621512E-12
  2.3654999E-02    5.3350224E-11
  2.3690000E-02   -9.4376500E-11
  2.3724999E-02   -2.6467839E-10
  2.3760000E-02   -2.3497271E-10
  2.3794999E-02   -9.7327937E-11
  2.3830000E-02   -1.2327371E-10
  2.3864999E-02   -3.4702435E-10
  2.3900000E-02   -5.2605159E-10
  2.3934999E-02   -5.2139032E-10
  2.3970000E-02   -4.9218141E-10
  2.4005000E-02   -6.3985128E-10
  2.4040001E-02   -9.3382613E-10
  2.4075000E-02   -1.2008512E-09
  2.4110001E-02   -1.3770503E-09
  2.4145000E-02   -1.5640760E-09
  2.4180001E-02   -1.8885773E-09
  2.4215000E-02   -2.3781894E-09
  2.4250001E-02   -2.9517384E-09
  2.4285000E-02   -3.5113152E-09
  2.4320001E-02   -4.0793822E-09
  2.4355000E-02   -4.8239959E-09
  2.4390001E-02   -5.8722476E-09
  2.4425000E-02   -7.1342892E-09
  2.4460001E-02   -8.4437364E-09
  2.4495000E-02   -9.8595256E-09
  2.4529999E-02   -1.1651866E-08
  2.4565000E-02   -1.3950195E-08
  2.4599999E-02   -1.6601456E-08
  2.4635000E-02   -1.9483895E-08
  2.4669999E-02   -2.2783146E-08
  2.4705000E-02   -2.6793249E-08
  2.4739999E-02   -3.1578146E-08
  2.4775000E-02   -3.7032493E-08
  2.4809999E-02   -4.3207173E-08
  2.4845000E-02   -5.0370303E-08
  2.4879999E-02   -5.8763831E-08
  2.4915000E-02   -6.8488731E-08
  2.4950000E-02   -7.9653191E-08
  2.4985000E-02   -9.2476952E-08
  2.5020000E-02   -1.0721707E-07
  2.5055001E-02   -1.2413379E-07
  2.5090000E-02   -1.4356651E-07
  2.5125001E-02   -1.6590317E-07
  2.5160000E-02   -1.9144126E-07
  2.5195001E-02   -2.2045126E-07
  2.5230000E-02   -2.5344485E-07
  2.5265001E-02   -2.9118590E-07
  2.5300000E-02   -3.3432113E-07
  2.5335001E-02   -3.8322432E-07
  2.5370000E-02   -4.3842428E-07
  2.5405001E-02   -5.0099339E-07
  2.5440000E-02   -5.7220444E-07
  2.5474999E-02   -6.5294148E-07
  2.5510000E-02   -7.4386458E-07
  2.5544999E-02   -8.4614845E-07
  2.5580000E-02   -9.6161318E-07
  2.5614999E-02   -1.0920110E-06
  2.5650000E-02   -1.2386322E-06
  2.5684999E-02   -1.4028986E-06
  2.5720000E-02   -1.5869886E-06
  2.5754999E-02   -1.7935276E-06
  2.5790000E-02   -2.0249374E-06
  2.5824999E-02   -2.2835161E-06
  2.5860000E-02   -2.5720408E-06
  2.5895000E-02   -2.8939094E-06
  2.5930000E-02   -3.2527673E-06
  2.5965000E-02   -3.6523495E-06
  2.6000001E-02   -4.0967047E-06
  2.6035000E-02   -4.5903107E-06
  2.6070001E-02   -5.1379971E-06
  2.6105000E-02   -5.7450334E-06
  2.6140001E-02   -6.4172759E-06
  2.6175000E-02   -7.1610120E-06
  2.6210001E-02   -7.9827460E-06
  2.6245000E-02   -8.8894503E-06
  2.6280001E-02   -9.8890168E-06
  2.6315000E-02   -1.0990178E-05
  2.6350001E-02   -1.2202021E-05
  2.6385000E-02   -1.3533972E-05
  2.6419999E-02   -1.4996353E-05
  2.6455000E-02   -1.6600643E-05
  2.6489999E-02   -1.8359098E-05
  2.6525000E-02   -2.0284442E-05
  2.6559999E-02   -2.2390161E-05
  2.6595000E-02   -2.4690908E-05
  2.6629999E-02   -2.7202363E-05
  2.6665000E-02   -2.9940978E-05
  2.6699999E-02   -3.2924174E-05
  2.6735000E-02   -3.6170666E-05
  2.6769999E-02   -3.9700295E-05
  2.6805000E-02   -4.3533746E-05
  2.6839999E-02   -4.7692844E-05
  2.6875000E-02   -5.2201205E-05
  2.6910000E-02   -5.7083962E-05
  2.6945001E-02   -6.2366940E-05
  2.6980000E-02   -6.8076683E-05