 -4.8000002E-03    1.0000000E-24
 -4.7650002E-03    1.0000000E-24
 -4.7300002E-03    1.0000002E-24
 -4.6950001E-03    1.0000002E-24
 -4.6600001E-03    1.0000002E-24
 -4.6250001E-03    1.0000000E-24
 -4.5900000E-03    1.0000000E-24
 -4.5550000E-03    1.0000002E-24
 -4.5200000E-03    1.0000002E-24
 -4.4849999E-03    1.0000002E-24
 -4.4499999E-03    1.0000001E-24
 -4.4149999E-03    9.9999982E-25
 -4.3799998E-03    9.9999982E-25
 -4.3449998E-03    1.0000005E-24
 -4.3100002E-03    1.0000006E-24
 -4.2750002E-03    9.9999992E-25
 -4.2400002E-03    9.9999963E-25
 -4.2050001E-03    1.0000001E-24
 -4.1700001E-03    1.0000002E-24
 -4.1350001E-03    9.9999992E-25
 -4.1000000E-03    1.0000000E-24
 -4.0650000E-03    1.0000002E-24
 -4.0300000E-03    1.0000002E-24
 -3.9949999E-03    1.0000003E-24
 -3.9599999E-03    9.9999992E-25
 -3.9249999E-03    9.9999963E-25
 -3.8900001E-03    1.0000001E-24
 -3.8550000E-03    1.0000004E-24
 -3.8200000E-03    9.9999992E-25
 -3.7849999E-03    9.9999992E-25
 -3.7499999E-03    1.0000002E-24
 -3.7150001E-03    1.0000003E-24
 -3.6800001E-03    1.0000003E-24
 -3.6450000E-03    1.0000003E-24
 -3.6100000E-03    9.9999972E-25
 -3.5750000E-03    9.9999943E-25
 -3.5399999E-03    1.0000002E-24
 -3.5049999E-03    1.0000006E-24
 -3.4700001E-03    1.0000002E-24
 -3.4350001E-03    1.0000002E-24
 -3.4000000E-03    1.0000002E-24
 -3.3650000E-03    9.9999953E-25
 -3.3300000E-03    9.9999943E-25
 -3.2949999E-03    1.0000001E-24
 -3.2599999E-03    1.0000005E-24
 -3.2250001E-03    1.0000002E-24
 -3.1900001E-03    1.0000001E-24
 -3.1550000E-03    1.0000000E-24
 -3.1200000E-03    9.9999972E-25
 -3.0850000E-03    9.9999992E-25
 -3.0499999E-03    1.0000002E-24
 -3.0149999E-03    1.0000001E-24
 -2.9800001E-03    9.9999992E-25
 -2.9450001E-03    1.0000002E-24
 -2.9100000E-03    1.0000002E-24
 -2.8750000E-03    1.0000000E-24
 -2.8400000E-03    1.0000002E-24
 -2.8049999E-03    1.0000001E-24
 -2.7699999E-03    9.9999963E-25
 -2.7350001E-03    1.0000000E-24
 -2.7000001E-03    1.0000006E-24
 -2.6650000E-03    1.0000005E-24
 -2.6300000E-03    1.0000003E-24
 -2.5950000E-03    1.0000002E-24
 -2.5599999E-03    9.9999982E-25
 -2.5249999E-03    1.0000002E-24
 -2.4900001E-03    1.0000006E-24
 -2.4550001E-03    1.0000001E-24
 -2.4200000E-03    9.9999943E-25
 -2.3850000E-03    9.9999972E-25
 -2.3500000E-03    1.0000002E-24
 -2.3149999E-03    1.0000002E-24
 -2.2799999E-03    1.0000007E-24
 -2.2450001E-03    1.0000006E-24
 -2.2100001E-03    9.9999943E-25
 -2.1750000E-03    9.9999963E-25
 -2.1400000E-03    1.0000010E-24
 -2.1050000E-03    1.0000003E-24
 -2.0699999E-03    9.9999874E-25
 -2.0349999E-03    9.9999953E-25
 -2.0000001E-03    1.0000009E-24
 -1.9650001E-03    1.0000007E-24
 -1.9300000E-03    1.0000003E-24
 -1.8950000E-03    1.0000002E-24
 -1.8600000E-03    1.0000000E-24
 -1.8250000E-03    1.0000000E-24
 -1.7900000E-03    9.9999972E-25
 -1.7550000E-03    9.9999913E-25
 -1.7199999E-03    9.9999953E-25
 -1.6850000E-03    1.0000010E-24
 -1.6500000E-03    1.0000013E-24
 -1.6150000E-03    1.0000004E-24
 -1.5800000E-03    9.9999963E-25
 -1.5450000E-03    9.9999943E-25
 -1.5100000E-03    9.9999963E-25
 -1.4750001E-03    1.0000006E-24
 -1.4400000E-03    1.0000011E-24
 -1.4050000E-03    9.9999982E-25
 -1.3700000E-03    9.9999933E-25
 -1.3350000E-03    9.9999992E-25
 -1.3000000E-03    1.0000002E-24
 -1.2650000E-03    1.0000004E-24
 -1.2300001E-03    1.0000007E-24
 -1.1950000E-03    9.9999982E-25
 -1.1600000E-03    9.9999884E-25
 -1.1250000E-03    9.9999982E-25
 -1.0900000E-03    1.0000013E-24
 -1.0550000E-03    1.0000012E-24
 -1.0200000E-03    1.0000001E-24
 -9.8500005E-04    9.9999933E-25
 -9.5000002E-04    9.9999963E-25
 -9.1499998E-04    9.9999992E-25
 -8.8000001E-04    9.9999992E-25
 -8.4499997E-04    1.0000009E-24
 -8.1000000E-04    1.0000015E-24
 -7.7500002E-04    9.9999992E-25
 -7.3999999E-04    9.9999874E-25
 -7.0500001E-04    9.9999933E-25
 -6.6999998E-04    1.0000003E-24
 -6.3500000E-04    1.0000006E-24
 -6.0000003E-04    1.0000004E-24
 -5.6499999E-04    9.9999992E-25
 -5.3000002E-04    9.9999933E-25
 -4.9499999E-04    9.9999913E-25
 -4.6000001E-04    9.9999943E-25
 -4.2500001E-04    1.0000008E-24
 -3.9000000E-04    1.0000016E-24
 -3.5500000E-04    1.0000008E-24
 -3.1999999E-04    9.9999982E-25
 -2.8499999E-04    9.9999953E-25
 -2.5000001E-04    9.9999933E-25
 -2.1499999E-04    9.9999972E-25
 -1.8000000E-04    1.0000006E-24
 -1.4500000E-04    1.0000007E-24
 -1.1000000E-04    1.0000006E-24
 -7.5000004E-05    1.0000010E-24
 -3.9999999E-05    1.0000011E-24
 -4.9999999E-06    9.9999982E-25
  2.9999999E-05    9.9999854E-25
  6.5000000E-05    9.9999893E-25
  9.9999997E-05    9.9999992E-25
  1.3499999E-04    1.0000004E-24
  1.7000000E-04    1.0000008E-24
  2.0500000E-04    1.0000014E-24
  2.3999999E-04    1.0000003E-24
  2.7500000E-04    9.9999854E-25
  3.1000000E-04    9.9999884E-25
  3.4500001E-04    1.0000005E-24
  3.8000001E-04    1.0000007E-24
  4.1499999E-04    1.0000001E-24
  4.4999999E-04    9.9999953E-25
  4.8500000E-04    9.9999884E-25
  5.2000000E-04    1.0000001E-24
  5.5499998E-04    1.0000020E-24
  5.9000001E-04    1.0000011E-24
  6.2499999E-04    9.9999953E-25
  6.6000002E-04    9.9999982E-25
  6.9500000E-04    9.9999982E-25
  7.3000003E-04    9.9999903E-25
  7.6500000E-04    1.0000000E-24
  7.9999998E-04    1.0000013E-24
  8.3500001E-04    1.0000002E-24
  8.6999999E-04    9.9999953E-25
  9.0500002E-04    9.9999992E-25
  9.4000000E-04    9.9999972E-25
  9.7499997E-04    1.0000001E-24
  1.0100000E-03    1.0000015E-24
  1.0450000E-03    1.0000008E-24
  1.0800000E-03    9.9999884E-25
  1.1150000E-03    9.9999913E-25
  1.1500000E-03    1.0000005E-24
  1.1849999E-03    1.0000011E-24
  1.2200000E-03    1.0000005E-24
  1.2550000E-03    9.9999933E-25
  1.2900000E-03    9.9999963E-25
  1.3250000E-03    1.0000010E-24
  1.3600000E-03    1.0000002E-24
  1.3950000E-03    9.9999864E-25
  1.4299999E-03    1.0000002E-24
  1.4650000E-03    1.0000017E-24
  1.5000000E-03    9.9999972E-25
  1.5350000E-03    9.9999834E-25
  1.5700000E-03    1.0000005E-24
  1.6050000E-03    1.0000020E-24
  1.6400000E-03    1.0000002E-24
  1.6749999E-03    9.9999893E-25
  1.7100000E-03    9.9999953E-25
  1.7450000E-03    1.0000001E-24
  1.7800000E-03    1.0000005E-24
  1.8150000E-03    1.0000010E-24
  1.8500000E-03    1.0000004E-24
  1.8850000E-03    9.9999963E-25
  1.9200000E-03    1.0000001E-24
  1.9550000E-03    1.0000005E-24
  1.9900000E-03    9.9999963E-25
  2.0250001E-03    9.9999933E-25
  2.0600001E-03    1.0000005E-24
  2.0949999E-03    1.0000004E-24
  2.1299999E-03    9.9999933E-25
  2.1650000E-03    1.0000001E-24
  2.2000000E-03    1.0000018E-24
  2.2350000E-03    1.0000016E-24
  2.2700001E-03    9.9999963E-25
  2.3050001E-03    9.9999834E-25
  2.3399999E-03    9.9999913E-25
  2.3749999E-03    1.0000005E-24
  2.4100000E-03    1.0000006E-24
  2.4450000E-03    9.9999943E-25
  2.4800000E-03    9.9999982E-25
  2.5150001E-03    1.0000007E-24
  2.5500001E-03    9.9999992E-25
  2.5849999E-03    9.9999933E-25
  2.6199999E-03    1.0000002E-24
  2.6550000E-03    1.0000003E-24
  2.6900000E-03    9.9999992E-25
  2.7250000E-03    1.0000012E-24
  2.7600001E-03    1.0000018E-24
  2.7950001E-03    1.0000004E-24
  2.8299999E-03    9.9999953E-25
  2.8649999E-03    9.9999943E-25
  2.9000000E-03    9.9999893E-25
  2.9350000E-03    9.9999933E-25
  2.9700000E-03    1.0000009E-24
  3.0050001E-03    1.0000011E-24
  3.0400001E-03    9.9999933E-25
  3.0749999E-03    9.9999864E-25
  3.1099999E-03    9.9999963E-25
  3.1450000E-03    1.0000001E-24
  3.1800000E-03    1.0000003E-24
  3.2150000E-03    1.0000013E-24
  3.2500001E-03    1.0000013E-24
  3.2850001E-03    9.9999972E-25
  3.3199999E-03    9.9999903E-25
  3.3549999E-03    1.0000003E-24
  3.3900000E-03    1.0000016E-24
  3.4250000E-03    1.0000011E-24
  3.4600000E-03    9.9999963E-25
  3.4950001E-03    9.9999963E-25
  3.5300001E-03    9.9999943E-25
  3.5649999E-03    9.9999815E-25
  3.5999999E-03    9.9999972E-25
  3.6350000E-03    1.0000028E-24
  3.6700000E-03    1.0000020E-24
  3.7050000E-03    9.9999893E-25
  3.7400001E-03    9.9999834E-25
  3.7750001E-03    9.9999943E-25
  3.8099999E-03    9.9999953E-25
  3.8449999E-03    9.9999972E-25
  3.8800000E-03    1.0000003E-24
  3.9149998E-03    9.9999982E-25
  3.9499998E-03    9.9999992E-25
  3.9849998E-03    1.0000014E-24
  4.0199999E-03    1.0000011E-24
  4.0549999E-03    9.9999963E-25
  4.0899999E-03    9.9999953E-25
  4.1250000E-03    1.0000000E-24
  4.1600000E-03    9.9999972E-25
  4.1950000E-03    9.9999972E-25
  4.2300001E-03    1.0000000E-24
  4.2650001E-03    9.9999982E-25
  4.3000001E-03    1.0000003E-24
  4.3350002E-03    1.0000006E-24
  4.3700002E-03    9.9999953E-25
  4.4049998E-03    9.9999943E-25
  4.4399998E-03    1.0000007E-24
  4.4749998E-03    1.0000006E-24
  4.5099999E-03    9.9999933E-25
  4.5449999E-03    9.9999953E-25
  4.5799999E-03    9.9999992E-25
  4.6150000E-03    1.0000007E-24
  4.6500000E-03    1.0000018E-24
  4.6850001E-03    1.0000009E-24
  4.7200001E-03    9.9999923E-25
  4.7550001E-03    9.9999903E-25
  4.7900002E-03    9.9999913E-25
  4.8250002E-03    9.9999963E-25
  4.8600002E-03    1.0000018E-24
  4.8949998E-03    1.0000017E-24
  4.9299998E-03    9.9999874E-25
  4.9649999E-03    9.9999884E-25
  4.9999999E-03    1.0000006E-24
  5.0349999E-03    9.9999953E-25
  5.0700000E-03    9.9999953E-25
  5.1050000E-03    1.0000015E-24
  5.1400000E-03    1.0000001E-24
  5.1750001E-03    9.9999824E-25
  5.2100001E-03    9.9999982E-25
  5.2450001E-03    1.0000009E-24
  5.2800002E-03    1.0000011E-24
  5.3150002E-03    1.0000026E-24
  5.3500002E-03    1.0000013E-24
  5.3849998E-03    9.9999746E-25
  5.4199998E-03    9.9999755E-25
  5.4549999E-03    1.0000000E-24
  5.4899999E-03    9.9999953E-25
  5.5249999E-03    9.9999943E-25
  5.5600000E-03    1.0000022E-24
  5.5950000E-03    1.0000029E-24
  5.6300000E-03    1.0000007E-24
  5.6650001E-03    9.9999913E-25
  5.7000001E-03    9.9999844E-25
  5.7350001E-03    9.9999824E-25
  5.7700002E-03    1.0000002E-24
  5.8050002E-03    1.0000016E-24
  5.8400002E-03    1.0000003E-24
  5.8749998E-03    1.0000002E-24
  5.9099998E-03    1.0000012E-24
  5.9449999E-03    9.9999943E-25
  5.9799999E-03    9.9999795E-25
  6.0149999E-03    9.9999982E-25
  6.0500000E-03    1.0000010E-24
  6.0850000E-03    1.0000005E-24
  6.1200000E-03    1.0000005E-24
  6.1550001E-03    1.0000004E-24
  6.1900001E-03    1.0000001E-24
  6.2250001E-03    1.0000008E-24
  6.2600002E-03    1.0000005E-24
  6.2950002E-03    9.9999844E-25
  6.3299998E-03    9.9999755E-25
  6.3649998E-03    9.9999953E-25
  6.3999998E-03    1.0000020E-24
  6.4349999E-03    1.0000023E-24
  6.4699999E-03    1.0000008E-24
  6.5049999E-03    9.9999884E-25
  6.5400000E-03    9.9999755E-25
  6.5750000E-03    9.9999864E-25
  6.6100000E-03    1.0000012E-24
  6.6450001E-03    1.0000023E-24
  6.6800001E-03    1.0000018E-24
  6.7150001E-03    1.0000003E-24
  6.7500002E-03    9.9999795E-25
  6.7850002E-03    9.9999765E-25
  6.8199998E-03    1.0000005E-24
  6.8549998E-03    1.0000015E-24
  6.8899998E-03    9.9999982E-25
  6.9249999E-03    9.9999953E-25
  6.9599999E-03    9.9999923E-25
  6.9949999E-03    9.9999893E-25
  7.0300000E-03    1.0000012E-24
  7.0650000E-03    1.0000025E-24
  7.1000000E-03    1.0000002E-24
  7.1350001E-03    9.9999963E-25
  7.1700001E-03    1.0000005E-24
  7.2050001E-03    9.9999923E-25
  7.2400002E-03    9.9999854E-25
  7.2750002E-03    1.0000005E-24
  7.3099998E-03    1.0000040E-24
  7.3449998E-03    1.0000046E-24
  7.3799998E-03    9.9999627E-25
  7.4149999E-03    9.9998789E-25
  7.4499999E-03    1.0000012E-24
  7.4850000E-03    1.0000199E-24
  7.5200000E-03    1.0000013E-24
  7.5550000E-03    9.9996777E-25
  7.5900001E-03    9.9999233E-25
  7.6250001E-03    1.0000503E-24
  7.6600001E-03    1.0000219E-24
  7.6950002E-03    9.9992084E-25
  7.7300002E-03    9.9994549E-25
  7.7650002E-03    1.0001203E-24
  7.7999998E-03    1.0001212E-24
  7.8349998E-03    9.9982884E-25
  7.8699999E-03    9.9975675E-25
  7.9049999E-03    1.0002258E-24
  7.9399999E-03    1.0004586E-24
  7.9750000E-03    9.9973989E-25
  8.0100000E-03    9.9917891E-25
  8.0450000E-03    1.0002232E-24
  8.0800001E-03    1.0014037E-24
  8.1150001E-03    9.9998769E-25
  8.1500001E-03    9.9770246E-25
  8.1850002E-03    9.9943914E-25
  8.2200002E-03    1.0036007E-24
  8.2550002E-03    1.0018365E-24
  8.2900003E-03    9.9463281E-25
  8.3250003E-03    9.9563358E-25
  8.3600003E-03    1.0075314E-24
  8.3950004E-03    1.0090137E-24
  8.4300004E-03    9.9025542E-25
  8.4650004E-03    9.8294524E-25
  8.5000005E-03    1.0110811E-24
  8.5349996E-03    1.0302426E-24
  8.5699996E-03    9.9043498E-25
  8.6049996E-03    9.4923840E-25
  8.6399997E-03    1.0014523E-24
  8.6749997E-03    1.0809543E-24
  8.7099997E-03    1.0198301E-24
  8.7449998E-03    8.7745866E-25
  8.7799998E-03    9.3492047E-25
  8.8149998E-03    1.1749802E-24
  8.8499999E-03    1.1509571E-24
  8.8849999E-03    7.6758794E-25
  8.9199999E-03    6.9843945E-25
  8.9550000E-03    1.2784595E-24
  8.9900000E-03    1.5491977E-24
  9.0250000E-03    7.2202757E-25
  9.0600001E-03    6.7077176E-26
  9.0950001E-03    1.1648572E-24
  9.1300001E-03    2.4923733E-24
  9.1650002E-03    1.1745087E-24
  9.2000002E-03   -1.2530052E-24
  9.2350002E-03    7.8298654E-26
  9.2700003E-03    4.1970209E-24
  9.3050003E-03    3.3477387E-24
  9.3400003E-03   -3.2122915E-24
  9.3750004E-03   -3.8287400E-24
  9.4100004E-03    6.0101581E-24
  9.4450004E-03    9.8423722E-24
  9.4799995E-03   -4.0029792E-24
  9.5149996E-03   -1.3921830E-23
  9.5499996E-03    4.1358987E-24
  9.5849996E-03    2.4530816E-23
  9.6199997E-03    3.3226656E-24
  9.6549997E-03   -3.3806754E-23
  9.6899997E-03   -1.3006709E-23
  9.7249998E-03    4.9102855E-23
  9.7599998E-03    3.6632993E-23
  9.7949998E-03   -6.0248330E-23
  9.8299999E-03   -7.1016843E-23
  9.8649999E-03    7.0449715E-23
  9.8999999E-03    1.2972089E-22
  9.9350000E-03   -6.2792735E-23
  9.9700000E-03   -2.1002552E-22
  1.0005000E-02    3.0395448E-23
  1.0040000E-02    3.2278411E-22
  1.0075000E-02    5.7556188E-23
  1.0110000E-02   -4.5660981E-22
  1.0145000E-02   -2.2535623E-22
  1.0180000E-02    6.0378197E-22
  1.0215000E-02    5.2291381E-22
  1.0250000E-02   -7.1934603E-22
  1.0285000E-02   -9.9084656E-22
  1.0320000E-02    7.4123693E-22
  1.0355000E-02    1.6841164E-21
  1.0390000E-02   -5.4406356E-22
  1.0425000E-02   -2.6229778E-21
  1.0460000E-02   -4.3365088E-23
  1.0495000E-02    3.7953555E-21
  1.0530000E-02    1.2803412E-21
  1.0565000E-02   -5.0787347E-21
  1.0600000E-02   -3.4806815E-21
  1.0635000E-02    6.2068164E-21
  1.0670000E-02    7.0192131E-21
  1.0705000E-02   -6.6534830E-21
  1.0740000E-02   -1.2233496E-20
  1.0775000E-02    5.5690666E-21
  1.0810000E-02    1.9327503E-20
  1.0845000E-02   -1.6587040E-21
  1.0880000E-02   -2.8125853E-20
  1.0915000E-02   -6.8354361E-21
  1.0950000E-02    3.7786318E-20
  1.0985000E-02    2.2120999E-20
  1.1020000E-02   -4.6334577E-20
  1.1055000E-02   -4.6603340E-20
  1.1090000E-02    5.0168255E-20
  1.1125000E-02    8.2417556E-20
  1.1160000E-02   -4.3467950E-20
  1.1195000E-02   -1.3049537E-19
  1.1230000E-02    1.7780533E-20
  1.1265000E-02    1.8917812E-19
  1.1300000E-02    3.8118799E-20
  1.1335000E-02   -2.5217462E-19
  1.1370000E-02   -1.3760495E-19
  1.1405000E-02    3.0602467E-19
  1.1440000E-02    2.9447653E-19
  1.1475000E-02   -3.2716498E-19
  1.1510000E-02   -5.1942900E-19
  1.1545000E-02    2.7925018E-19
  1.1580000E-02    8.1427778E-19
  1.1615000E-02   -1.1154330E-19
  1.1650000E-02   -1.1633722E-18
  1.1685000E-02   -2.4004787E-19
  1.1720000E-02    1.5222943E-18
  1.1755000E-02    8.4742270E-19
  1.1790000E-02   -1.8044316E-18
  1.1825000E-02   -1.7776701E-18
  1.1860000E-02    1.8674636E-18
  1.1895000E-02    3.0709390E-18
  1.1930000E-02   -1.5032142E-18
  1.1965000E-02   -4.7065894E-18
  1.2000000E-02    4.3662941E-19
  1.2035000E-02    6.5571070E-18
  1.2070000E-02    1.6583965E-18
  1.2105000E-02   -8.3318264E-18
  1.2140000E-02   -5.1165236E-18
  1.2175000E-02    9.5172696E-18
  1.2210000E-02    1.0201496E-17
  1.2245000E-02   -9.3269842E-18
  1.2280000E-02   -1.6980738E-17
  1.2315000E-02    6.6817652E-18
  1.2350000E-02    2.5150364E-17
  1.2385000E-02   -2.4935970E-19
  1.2420000E-02   -3.3816940E-17
  1.2455000E-02   -1.1420168E-17
  1.2490000E-02    4.1258697E-17
  1.2525000E-02    2.9624034E-17
  1.2560000E-02   -4.4711511E-17
  1.2595000E-02   -5.5067663E-17
  1.2630000E-02    4.0252700E-17
  1.2665000E-02    8.7240410E-17
  1.2700000E-02   -2.2885197E-17
  1.2735000E-02   -1.2362525E-16
  1.2770000E-02   -1.3050201E-17
  1.2805000E-02    1.5881750E-16
  1.2840000E-02    7.2997703E-17
  1.2875000E-02   -1.8370464E-16
  1.2910000E-02   -1.6072475E-16
  1.2945000E-02    1.8495305E-16
  1.2980000E-02    2.7621673E-16
  1.3015000E-02   -1.4514513E-16
  1.3050000E-02   -4.1298693E-16
  1.3085000E-02    4.3988644E-17
  1.3120000E-02    5.5504560E-16
  1.3155000E-02    1.3894942E-16
  1.3190000E-02   -6.7402202E-16
  1.3225000E-02   -4.1959754E-16
  1.3260000E-02    7.2722945E-16
  1.3295000E-02    8.0263609E-16
  1.3330000E-02   -6.5776767E-16
  1.3365000E-02   -1.2728494E-15
  1.3400000E-02    3.9798724E-16
  1.3435000E-02    1.7853494E-15
  1.3470000E-02    1.2228760E-16
  1.3505000E-02   -2.2562156E-15
  1.3540000E-02   -9.6161385E-16
  1.3575000E-02    2.5559990E-15
  1.3610000E-02    2.1463501E-15
  1.3645000E-02   -2.5093902E-15
  1.3680000E-02   -3.6443017E-15
  1.3715000E-02    1.9050152E-15
  1.3750000E-02    5.3350074E-15
  1.3785000E-02   -5.1939425E-16
  1.3820000E-02   -6.9813574E-15
  1.3855000E-02   -1.8416851E-15
  1.3890000E-02    8.2097466E-15
  1.3925000E-02    5.2831787E-15
  1.3960000E-02   -8.5083409E-15
  1.3995000E-02   -9.7444483E-15
  1.4030000E-02    7.2545958E-15
  1.4065000E-02    1.4913965E-14
  1.4100000E-02   -3.7830664E-15
  1.4135000E-02   -2.0148666E-14
  1.4170000E-02   -2.4981371E-15
  1.4205000E-02    2.4418415E-14
  1.4240000E-02    1.1940055E-14
  1.4275000E-02   -2.6301898E-14
  1.4310000E-02   -2.4442496E-14
  1.4345000E-02    2.4063740E-14
  1.4380000E-02    3.9222193E-14
  1.4415000E-02   -1.5841085E-14
  1.4450000E-02   -5.4597897E-14
  1.4485000E-02   -4.0760337E-17
  1.4520000E-02    6.7847576E-14
  1.4555000E-02    2.4621664E-14
  1.4590000E-02   -7.5206944E-14
  1.4625000E-02   -5.7754244E-14
  1.4660000E-02    7.2084286E-14
  1.4695000E-02    9.7507411E-14
  1.4730000E-02   -5.3559411E-14
  1.4765000E-02   -1.3962891E-13
  1.4800000E-02    1.5207482E-14
  1.4835000E-02    1.7720980E-13
  1.4870000E-02    4.5759010E-14
  1.4905000E-02   -2.0072323E-13
  1.4940000E-02   -1.2910900E-13
  1.4975000E-02    1.9861600E-13
  1.5010000E-02    2.3014094E-13
  1.5045000E-02   -1.5860215E-13
  1.5080000E-02   -3.3842482E-13
  1.5115000E-02    6.9732882E-14
  1.5150000E-02    4.3709228E-13
  1.5185000E-02    7.4811712E-14
  1.5220000E-02   -5.0307886E-13
  1.5255000E-02   -2.7443686E-13
  1.5290000E-02    5.0871812E-13
  1.5325000E-02    5.1779593E-13
  1.5360000E-02   -4.2498662E-13
  1.5395000E-02   -7.8005289E-13
  1.5430000E-02    2.2649779E-13
  1.5465000E-02    1.0215708E-12
  1.5500000E-02    1.0197888E-13
  1.5535000E-02   -1.1889281E-12
  1.5570000E-02   -5.5810250E-13
  1.5605000E-02    1.2190804E-12
  1.5640000E-02    1.1147525E-12
  1.5675001E-02   -1.0472082E-12
  1.5710000E-02   -1.7145435E-12
  1.5745001E-02    6.1825279E-13
  1.5780000E-02    2.2678972E-12
  1.5814999E-02    9.8587628E-14
  1.5850000E-02   -2.6565354E-12
  1.5884999E-02   -1.0940506E-12
  1.5920000E-02    2.7439364E-12
  1.5954999E-02    2.3042642E-12
  1.5990000E-02   -2.3935309E-12
  1.6024999E-02   -3.6008527E-12
  1.6060000E-02    1.4941321E-12
  1.6094999E-02    4.7894579E-12
  1.6130000E-02    9.5199193E-15
  1.6164999E-02   -5.6202634E-12
  1.6200000E-02   -2.0850990E-12
  1.6235000E-02    5.8130623E-12
  1.6270000E-02    4.5856591E-12
  1.6305000E-02   -5.0974806E-12
  1.6340001E-02   -7.2342050E-12
  1.6375000E-02    3.2661866E-12
  1.6410001E-02    9.6271446E-12
  1.6445000E-02   -2.3551831E-13
  1.6480001E-02   -1.1262775E-11
  1.6515000E-02   -3.8955518E-12
  1.6550001E-02    1.1598198E-11
  1.6585000E-02    8.8000050E-12
  1.6620001E-02   -1.0133639E-11
  1.6655000E-02   -1.3904382E-11
  1.6690001E-02    6.5173617E-12
  1.6725000E-02    1.8410126E-11
  1.6759999E-02   -6.5798311E-13
  1.6795000E-02   -2.1363730E-11
  1.6829999E-02   -7.1748558E-12
  1.6865000E-02    2.1778268E-11
  1.6899999E-02    1.6284415E-11
  1.6935000E-02   -1.8799602E-11
  1.6969999E-02   -2.5538965E-11
  1.7005000E-02    1.1899618E-11
  1.7039999E-02    3.3441656E-11
  1.7075000E-02   -1.0679546E-12
  1.7109999E-02   -3.8288414E-11
  1.7145000E-02   -1.3034402E-11
  1.7180000E-02    3.8410240E-11
  1.7215000E-02    2.9000248E-11
  1.7250000E-02   -3.2478291E-11
  1.7285001E-02   -4.4716401E-11
  1.7320000E-02    1.9832250E-11
  1.7355001E-02    5.7544223E-11
  1.7390000E-02   -7.7605571E-13
  1.7425001E-02   -6.4644255E-11
  1.7460000E-02   -2.3223215E-11
  1.7495001E-02    6.3422816E-11
  1.7530000E-02    4.9496726E-11
  1.7565001E-02   -5.2047516E-11
  1.7600000E-02   -7.4343295E-11
  1.7635001E-02    2.9953071E-11
  1.7670000E-02    9.3427717E-11
  1.7704999E-02    1.7606617E-12
  1.7740000E-02   -1.0238828E-10
  1.7774999E-02   -4.0138552E-11
  1.7810000E-02    9.7588951E-11
  1.7844999E-02    8.0471879E-11
  1.7880000E-02   -7.6908750E-11
  1.7914999E-02   -1.1673874E-10
  1.7950000E-02    4.0428265E-11
  1.7984999E-02    1.4237443E-10
  1.8020000E-02    9.1367183E-12
  1.8054999E-02   -1.5129757E-10
  1.8090000E-02   -6.6387999E-11
  1.8124999E-02    1.3905228E-10
  1.8160000E-02    1.2367092E-10
  1.8195000E-02   -1.0387599E-10
  1.8230001E-02   -1.7198466E-10
  1.8265000E-02    4.7479153E-11
  1.8300001E-02    2.0229740E-10
  1.8335000E-02    2.4660470E-11
  1.8370001E-02   -2.0709311E-10
  1.8405000E-02   -1.0362924E-10
  1.8440001E-02    1.8190176E-10
  1.8475000E-02    1.7807818E-10
  1.8510001E-02   -1.2652412E-10
  1.8545000E-02   -2.3581331E-10
  1.8580001E-02    4.5675592E-11
  1.8615000E-02    2.6576985E-10
  1.8650001E-02    5.1158799E-11
  1.8685000E-02   -2.6005842E-10
  1.8719999E-02   -1.5074331E-10
  1.8755000E-02    2.1571164E-10
  1.8789999E-02    2.3791333E-10
  1.8825000E-02   -1.3576525E-10
  1.8859999E-02   -2.9796268E-10
  1.8895000E-02    2.9389616E-11
  1.8929999E-02    3.1922121E-10
  1.8965000E-02    8.9066400E-11
  1.8999999E-02   -2.9536165E-10
  1.9035000E-02   -2.0206198E-10
  1.9069999E-02    2.2697633E-10
  1.9105000E-02    2.9161926E-10
  1.9140000E-02   -1.2205166E-10
  1.9175000E-02   -3.4240427E-10
  1.9210000E-02   -4.8517280E-12
  1.9245001E-02    3.4458866E-10
  1.9280000E-02    1.3467771E-10
  1.9315001E-02   -2.9593400E-10
  1.9350000E-02   -2.4692681E-10
  1.9385001E-02    2.0264235E-10
  1.9420000E-02    3.2318140E-10
  1.9455001E-02   -7.8721911E-11
  1.9490000E-02   -3.5047631E-10
  1.9525001E-02   -5.6122600E-11
  1.9560000E-02    3.2386321E-10
  1.9595001E-02    1.7977039E-10
  1.9630000E-02   -2.4762983E-10
  1.9664999E-02   -2.7158553E-10
  1.9700000E-02    1.3485867E-10
  1.9734999E-02    3.1622685E-10
  1.9770000E-02   -5.3166846E-12
  1.9804999E-02   -3.0663264E-10
  1.9840000E-02   -1.1800720E-10
  1.9874999E-02    2.4555963E-10
  1.9910000E-02    2.1311616E-10
  1.9944999E-02   -1.4530821E-10
  1.9980000E-02   -2.6319022E-10
  2.0014999E-02    2.5599552E-11
  2.0050000E-02    2.5992025E-10
  2.0085000E-02    9.0064310E-11
  2.0120000E-02   -2.0529696E-10
  2.0155000E-02   -1.7890570E-10
  2.0190001E-02    1.1142900E-10
  2.0225000E-02    2.2338062E-10
  2.0260001E-02    1.6552370E-12
  2.0295000E-02   -2.1478806E-10
  2.0330001E-02   -1.0986592E-10
  2.0365000E-02    1.5520864E-10
  2.0400001E-02    1.8985137E-10
  2.0435000E-02   -5.7311274E-11
  2.0470001E-02   -2.2379539E-10
  2.0505000E-02   -5.8021119E-11
  2.0540001E-02    2.0321531E-10
  2.0575000E-02    1.6583561E-10
  2.0609999E-02   -1.3092950E-10
  2.0645000E-02   -2.4222324E-10
  2.0679999E-02    2.0703748E-11
  2.0715000E-02    2.6934427E-10
  2.0749999E-02    1.0542570E-10
  2.0785000E-02   -2.3928245E-10
  2.0819999E-02   -2.2165283E-10
  2.0855000E-02    1.5584829E-10
  2.0889999E-02    3.0378927E-10
  2.0925000E-02   -3.3881332E-11
  2.0959999E-02   -3.3436878E-10
  2.0995000E-02   -1.0385549E-10
  2.1029999E-02    3.0631123E-10
  2.1065000E-02    2.3152287E-10
  2.1100000E-02   -2.2429400E-10
  2.1135001E-02   -3.2570641E-10
  2.1170000E-02    1.0348832E-10
  2.1205001E-02    3.7028283E-10
  2.1240000E-02    3.4036562E-11
  2.1275001E-02   -3.5950407E-10
  2.1310000E-02   -1.6436365E-10
  2.1345001E-02    2.9856917E-10
  2.1380000E-02    2.6696795E-10
  2.1415001E-02   -2.0160384E-10
  2.1450000E-02   -3.2883118E-10
  2.1485001E-02    8.7638841E-11
  2.1520000E-02    3.4641282E-10
  2.1555001E-02    2.4278914E-11
  2.1590000E-02   -3.2505187E-10
  2.1624999E-02   -1.1947966E-10
  2.1660000E-02    2.7609795E-10
  2.1694999E-02    1.9035648E-10
  2.1730000E-02   -2.1273797E-10
  2.1764999E-02   -2.3666102E-10
  2.1800000E-02    1.4585895E-10
  2.1834999E-02    2.6346858E-10
  2.1870000E-02   -8.1265931E-11
  2.1904999E-02   -2.7762403E-10
  2.1940000E-02    1.9104026E-11
  2.1974999E-02    2.8396027E-10
  2.2010000E-02    4.4390453E-11
  2.2045000E-02   -2.8266883E-10
  2.2080000E-02   -1.1349205E-10
  2.2115000E-02    2.6881952E-10
  2.2150001E-02    1.8921113E-10
  2.2185000E-02   -2.3430907E-10
  2.2220001E-02   -2.6661723E-10
  2.2255000E-02    1.7164598E-10
  2.2290001E-02    3.3442982E-10
  2.2325000E-02   -7.8258844E-11
  2.2360001E-02   -3.7730349E-10
  2.2395000E-02   -4.0297283E-11
  2.2430001E-02    3.8027034E-10
  2.2465000E-02    1.6960237E-10
  2.2500001E-02   -3.3395700E-10
  2.2535000E-02   -2.8869071E-10
  2.2569999E-02    2.3878530E-10
  2.2605000E-02    3.7496217E-10
  2.2639999E-02   -1.0658978E-10
  2.2675000E-02   -4.1028450E-10
  2.2709999E-02   -4.1142759E-11
  2.2745000E-02    3.8638115E-10
  2.2779999E-02    1.7812030E-10
  2.2815000E-02   -3.0771410E-10
  2.2849999E-02   -2.7984923E-10
  2.2885000E-02    1.9077610E-10
  2.2919999E-02    3.2998332E-10
  2.2955000E-02   -5.9852213E-11
  2.2990000E-02   -3.2437442E-10
  2.3025000E-02   -5.9471185E-11
  2.3060000E-02    2.7150290E-10
  2.3095001E-02    1.4694809E-10
  2.3130000E-02   -1.8922632E-10
  2.3165001E-02   -1.9233971E-10
  2.3200000E-02    9.9060850E-11
  2.3235001E-02    1.9673624E-10
  2.3270000E-02   -1.9990908E-11
  2.3305001E-02   -1.7037653E-10
  2.3340000E-02   -3.6153108E-11
  2.3375001E-02    1.2802030E-10
  2.3410000E-02    6.6397408E-11
  2.3445001E-02   -8.3699991E-11
  2.3480000E-02   -7.5196314E-11
  2.3514999E-02    4.6746162E-11
  2.3550000E-02    7.0823639E-11
  2.3584999E-02   -2.0316780E-11
  2.3620000E-02   -6.1248659E-11
  2.3654999E-02    2.5810044E-12
  2.3690000E-02    5.1189990E-11
  2.3724999E-02    1.0380807E-11
  2.3760000E-02   -4.1348116E-11
  2.3794999E-02   -2.1477452E-11
  2.3830000E-02    2.9813547E-11
  2.3864999E-02    3.0778435E-11
  2.3900000E-02   -1.4670954E-11
  2.3934999E-02   -3.5749469E-11
  2.3970000E-02   -3.7670652E-12
  2.4005000E-02    3.3112756E-11
  2.4040001E-02    2.2140194E-11
  2.4075000E-02   -2.1352798E-11
  2.4110001E-02   -3.5073507E-11
  2.4145000E-02    2.6524859E-12
  2.4180001E-02    3.7894871E-11
  2.4215000E-02    1.7244386E-11
  2.4250001E-02   -2.9308802E-11
  2.4285000E-02   -3.1008064E-11
  2.4320001E-02    1.2990508E-11
  2.4355000E-02    3.3069998E-11
  2.4390001E-02    2.9312915E-12
  2.4425000E-02   -2.3289863E-11
  2.4460001E-02   -9.6185299E-12
  2.4495000E-02    7.5744324E-12
  2.4529999E-02    1.1149535E-12
  2.4565000E-02    2.8846632E-12
  2.4599999E-02    2.1326267E-11
  2.4635000E-02    4.1822587E-12
  2.4669999E-02   -4.6960161E-11
  2.4705000E-02   -3.4703889E-11
  2.4739999E-02    6.0076624E-11
  2.4775000E-02    8.6047940E-11
  2.4809999E-02   -4.2394688E-11
  2.4845000E-02   -1.4076158E-10
  2.4879999E-02   -1.3722575E-11
  2.4915000E-02    1.7513617E-10
  2.4950000E-02    1.0274204E-10
  2.4985000E-02   -1.6452090E-10
  2.5020000E-02   -2.0168404E-10
  2.5055001E-02    9.5438137E-11
  2.5090000E-02    2.7374225E-10
  2.5125001E-02    1.8465575E-11
  2.5160000E-02   -2.9620556E-10
  2.5195001E-02   -1.6364260E-10
  2.5230000E-02    2.2722833E-10
  2.5265001E-02    2.5952543E-10
  2.5300000E-02   -1.3096037E-10
  2.5335001E-02   -3.4448830E-10
  2.5370000E-02   -6.7323418E-11
  2.5405001E-02    2.4796734E-10
  2.5440000E-02    1.1710789E-10
  2.5474999E-02   -2.4306257E-10
  2.5510000E-02   -3.1349903E-10
  2.5544999E-02   -7.0117655E-11
  2.5580000E-02    7.0682009E-11
  2.5614999E-02   -7.9602130E-11
  2.5650000E-02   -3.0201600E-10
  2.5684999E-02   -3.8734618E-10
  2.5720000E-02   -3.6133799E-10
  2.5754999E-02   -3.1798342E-10
  2.5790000E-02   -3.3878050E-10
  2.5824999E-02   -5.3904076E-10
  2.5860000E-02   -8.9646091E-10
  2.5895000E-02   -1.1138650E-09
  2.5930000E-02   -1.0120293E-09
  2.5965000E-02   -9.6609543E-10
  2.6000001E-02   -1.4670110E-09
  2.6035000E-02   -2.2746471E-09
  2.6070001E-02   -2.6358962E-09
  2.6105000E-02   -2.4959610E-09
  2.6140001E-02   -2.7674065E-09
  2.6175000E-02   -3.9694426E-09
  2.6210001E-02   -5.3085829E-09
  2.6245000E-02   -5.8594036E-09
  2.6280001E-02   -6.1231029E-09
  2.6315000E-02   -7.3776700E-09
  2.6350001E-02   -9.6893240E-09
  2.6385000E-02   -1.1774102E-08
  2.6419999E-02   -1.3056946E-08
  2.6455000E-02   -1.4678964E-08
  2.6489999E-02   -1.7791686E-08
  2.6525000E-02   -2.1826695E-08
  2.6559999E-02   -2.5489893E-08
  2.6595000E-02   -2.8879999E-08
  2.6629999E-02   -3.3402443E-08
  2.6665000E-02   -3.9716610E-08
  2.6699999E-02   -4.6961389E-08
  2.6735000E-02   -5.4313297E-08
  2.6769999E-02   -6.2349400E-08
  2.6805000E-02   -7.2276457E-08
  2.6839999E-02   -8.4421494E-08
  2.6875000E-02   -9.8175704E-08
  2.6910000E-02   -1.1319644E-07
  2.6945001E-02   -1.3008670E-07
  2.6980000E-02   -1.4985207E-07