 -4.8000002E-03    1.0000000E-24
 -4.7650002E-03    1.0000002E-24
 -4.7300002E-03    1.0000001E-24
 -4.6950001E-03    1.0000000E-24
 -4.6600001E-03    1.0000001E-24
 -4.6250001E-03    1.0000002E-24
 -4.5900000E-03    1.0000002E-24
 -4.5550000E-03    9.9999992E-25
 -4.5200000E-03    1.0000001E-24
 -4.4849999E-03    1.0000002E-24
 -4.4499999E-03    1.0000001E-24
 -4.4149999E-03    9.9999972E-25
 -4.3799998E-03    1.0000002E-24
 -4.3449998E-03    1.0000004E-24
 -4.3100002E-03    1.0000003E-24
 -4.2750002E-03    1.0000002E-24
 -4.2400002E-03    9.9999992E-25
 -4.2050001E-03    9.9999982E-25
 -4.1700001E-03    1.0000002E-24
 -4.1350001E-03    1.0000001E-24
 -4.1000000E-03    9.9999982E-25
 -4.0650000E-03    1.0000001E-24
 -4.0300000E-03    1.0000002E-24
 -3.9949999E-03    9.9999972E-25
 -3.9599999E-03    9.9999943E-25
 -3.9249999E-03    9.9999982E-25
 -3.8900001E-03    1.0000003E-24
 -3.8550000E-03    1.0000002E-24
 -3.8200000E-03    1.0000003E-24
 -3.7849999E-03    1.0000005E-24
 -3.7499999E-03    1.0000003E-24
 -3.7150001E-03    9.9999992E-25
 -3.6800001E-03    1.0000000E-24
 -3.6450000E-03    1.0000001E-24
 -3.6100000E-03    9.9999992E-25
 -3.5750000E-03    1.0000002E-24
 -3.5399999E-03    1.0000003E-24
 -3.5049999E-03    9.9999963E-25
 -3.4700001E-03    9.9999972E-25
 -3.4350001E-03    1.0000005E-24
 -3.4000000E-03    9.9999982E-25
 -3.3650000E-03    9.9999933E-25
 -3.3300000E-03    1.0000007E-24
 -3.2949999E-03    1.0000006E-24
 -3.2599999E-03    9.9999923E-25
 -3.2250001E-03    9.9999963E-25
 -3.1900001E-03    1.0000008E-24
 -3.1550000E-03    1.0000000E-24
 -3.1200000E-03    9.9999982E-25
 -3.0850000E-03    1.0000011E-24
 -3.0499999E-03    1.0000011E-24
 -3.0149999E-03    9.9999943E-25
 -2.9800001E-03    9.9999933E-25
 -2.9450001E-03    1.0000005E-24
 -2.9100000E-03    1.0000000E-24
 -2.8750000E-03    9.9999923E-25
 -2.8400000E-03    1.0000001E-24
 -2.8049999E-03    1.0000009E-24
 -2.7699999E-03    1.0000000E-24
 -2.7350001E-03    9.9999953E-25
 -2.7000001E-03    1.0000007E-24
 -2.6650000E-03    1.0000006E-24
 -2.6300000E-03    9.9999913E-25
 -2.5950000E-03    9.9999923E-25
 -2.5599999E-03    1.0000004E-24
 -2.5249999E-03    1.0000007E-24
 -2.4900001E-03    1.0000005E-24
 -2.4550001E-03    1.0000006E-24
 -2.4200000E-03    1.0000002E-24
 -2.3850000E-03    9.9999903E-25
 -2.3500000E-03    9.9999943E-25
 -2.3149999E-03    9.9999972E-25
 -2.2799999E-03    9.9999953E-25
 -2.2450001E-03    1.0000005E-24
 -2.2100001E-03    1.0000011E-24
 -2.1750000E-03    9.9999982E-25
 -2.1400000E-03    9.9999893E-25
 -2.1050000E-03    1.0000004E-24
 -2.0699999E-03    1.0000015E-24
 -2.0349999E-03    9.9999953E-25
 -2.0000001E-03    9.9999923E-25
 -1.9650001E-03    1.0000016E-24
 -1.9300000E-03    1.0000011E-24
 -1.8950000E-03    9.9999874E-25
 -1.8600000E-03    1.0000001E-24
 -1.8250000E-03    1.0000016E-24
 -1.7900000E-03    9.9999933E-25
 -1.7550000E-03    9.9999834E-25
 -1.7199999E-03    9.9999972E-25
 -1.6850000E-03    1.0000003E-24
 -1.6500000E-03    1.0000003E-24
 -1.6150000E-03    1.0000004E-24
 -1.5800000E-03    9.9999953E-25
 -1.5450000E-03    9.9999953E-25
 -1.5100000E-03    1.0000006E-24
 -1.4750001E-03    1.0000006E-24
 -1.4400000E-03    1.0000000E-24
 -1.4050000E-03    1.0000007E-24
 -1.3700000E-03    1.0000012E-24
 -1.3350000E-03    9.9999992E-25
 -1.3000000E-03    9.9999893E-25
 -1.2650000E-03    9.9999943E-25
 -1.2300001E-03    1.0000003E-24
 -1.1950000E-03    1.0000000E-24
 -1.1600000E-03    9.9999953E-25
 -1.1250000E-03    1.0000005E-24
 -1.0900000E-03    1.0000013E-24
 -1.0550000E-03    9.9999972E-25
 -1.0200000E-03    9.9999893E-25
 -9.8500005E-04    1.0000000E-24
 -9.5000002E-04    1.0000000E-24
 -9.1499998E-04    9.9999923E-25
 -8.8000001E-04    1.0000004E-24
 -8.4499997E-04    1.0000012E-24
 -8.1000000E-04    9.9999982E-25
 -7.7500002E-04    9.9999953E-25
 -7.3999999E-04    1.0000005E-24
 -7.0500001E-04    1.0000000E-24
 -6.6999998E-04    9.9999884E-25
 -6.3500000E-04    9.9999972E-25
 -6.0000003E-04    1.0000012E-24
 -5.6499999E-04    1.0000004E-24
 -5.3000002E-04    9.9999903E-25
 -4.9499999E-04    1.0000001E-24
 -4.6000001E-04    1.0000009E-24
 -4.2500001E-04    1.0000002E-24
 -3.9000000E-04    1.0000000E-24
 -3.5500000E-04    1.0000001E-24
 -3.1999999E-04    9.9999953E-25
 -2.8499999E-04    9.9999982E-25
 -2.5000001E-04    1.0000007E-24
 -2.1499999E-04    1.0000002E-24
 -1.8000000E-04    9.9999903E-25
 -1.4500000E-04    9.9999992E-25
 -1.1000000E-04    1.0000005E-24
 -7.5000004E-05    9.9999923E-25
 -3.9999999E-05    9.9999893E-25
 -4.9999999E-06    1.0000005E-24
  2.9999999E-05    1.0000012E-24
  6.5000000E-05    9.9999972E-25
  9.9999997E-05    9.9999963E-25
  1.3499999E-04    1.0000007E-24
  1.7000000E-04    1.0000003E-24
  2.0500000E-04    9.9999903E-25
  2.3999999E-04    9.9999982E-25
  2.7500000E-04    1.0000008E-24
  3.1000000E-04    9.9999982E-25
  3.4500001E-04    1.0000002E-24
  3.8000001E-04    1.0000013E-24
  4.1499999E-04    1.0000001E-24
  4.4999999E-04    9.9999893E-25
  4.8500000E-04    1.0000006E-24
  5.2000000E-04    1.0000000E-24
  5.5499998E-04    9.9999775E-25
  5.9000001E-04    9.9999923E-25
  6.2499999E-04    1.0000020E-24
  6.6000002E-04    1.0000004E-24
  6.9500000E-04    9.9999913E-25
  7.3000003E-04    1.0000004E-24
  7.6500000E-04    1.0000007E-24
  7.9999998E-04    9.9999982E-25
  8.3500001E-04    1.0000006E-24
  8.6999999E-04    9.9999992E-25
  9.0500002E-04    9.9999834E-25
  9.4000000E-04    1.0000000E-24
  9.7499997E-04    1.0000016E-24
  1.0100000E-03    1.0000001E-24
  1.0450000E-03    9.9999943E-25
  1.0800000E-03    1.0000006E-24
  1.1150000E-03    1.0000001E-24
  1.1500000E-03    9.9999923E-25
  1.1849999E-03    1.0000009E-24
  1.2200000E-03    1.0000015E-24
  1.2550000E-03    9.9999972E-25
  1.2900000E-03    9.9999884E-25
  1.3250000E-03    9.9999992E-25
  1.3600000E-03    9.9999972E-25
  1.3950000E-03    9.9999864E-25
  1.4299999E-03    9.9999963E-25
  1.4650000E-03    1.0000017E-24
  1.5000000E-03    1.0000007E-24
  1.5350000E-03    9.9999982E-25
  1.5700000E-03    1.0000013E-24
  1.6050000E-03    1.0000002E-24
  1.6400000E-03    9.9999805E-25
  1.6749999E-03    9.9999923E-25
  1.7100000E-03    1.0000002E-24
  1.7450000E-03    9.9999982E-25
  1.7800000E-03    1.0000011E-24
  1.8150000E-03    1.0000009E-24
  1.8500000E-03    9.9999903E-25
  1.8850000E-03    1.0000007E-24
  1.9200000E-03    1.0000014E-24
  1.9550000E-03    9.9999834E-25
  1.9900000E-03    9.9999933E-25
  2.0250001E-03    1.0000030E-24
  2.0600001E-03    1.0000004E-24
  2.0949999E-03    9.9999795E-25
  2.1299999E-03    1.0000011E-24
  2.1650000E-03    1.0000015E-24
  2.2000000E-03    9.9999805E-25
  2.2350000E-03    9.9999903E-25
  2.2700001E-03    1.0000015E-24
  2.3050001E-03    9.9999943E-25
  2.3399999E-03    9.9999844E-25
  2.3749999E-03    1.0000012E-24
  2.4100000E-03    1.0000019E-24
  2.4450000E-03    1.0000002E-24
  2.4800000E-03    9.9999972E-25
  2.5150001E-03    1.0000000E-24
  2.5500001E-03    9.9999972E-25
  2.5849999E-03    9.9999982E-25
  2.6199999E-03    1.0000005E-24
  2.6550000E-03    9.9999933E-25
  2.6900000E-03    9.9999854E-25
  2.7250000E-03    1.0000004E-24
  2.7600001E-03    1.0000012E-24
  2.7950001E-03    1.0000001E-24
  2.8299999E-03    1.0000004E-24
  2.8649999E-03    1.0000012E-24
  2.9000000E-03    9.9999972E-25
  2.9350000E-03    9.9999913E-25
  2.9700000E-03    1.0000012E-24
  3.0050001E-03    1.0000006E-24
  3.0400001E-03    9.9999765E-25
  3.0749999E-03    9.9999854E-25
  3.1099999E-03    1.0000017E-24
  3.1450000E-03    1.0000013E-24
  3.1800000E-03    1.0000002E-24
  3.2150000E-03    1.0000012E-24
  3.2500001E-03    1.0000000E-24
  3.2850001E-03    9.9999824E-25
  3.3199999E-03    9.9999953E-25
  3.3549999E-03    1.0000004E-24
  3.3900000E-03    9.9999893E-25
  3.4250000E-03    9.9999933E-25
  3.4600000E-03    1.0000014E-24
  3.4950001E-03    1.0000024E-24
  3.5300001E-03    1.0000016E-24
  3.5649999E-03    9.9999726E-25
  3.5999999E-03    9.9999529E-25
  3.6350000E-03    1.0000053E-24
  3.6700000E-03    1.0000098E-24
  3.7050000E-03    9.9998868E-25
  3.7400001E-03    9.9998020E-25
  3.7750001E-03    1.0000209E-24
  3.8099999E-03    1.0000420E-24
  3.8449999E-03    9.9997123E-25
  3.8800000E-03    9.9991965E-25
  3.9149998E-03    1.0000333E-24
  3.9499998E-03    1.0001484E-24
  3.9849998E-03    9.9997251E-25
  4.0199999E-03    9.9972668E-25
  4.0549999E-03    9.9998740E-25
  4.0899999E-03    1.0004939E-24
  4.1250000E-03    1.0001412E-24
  4.1600000E-03    9.9914233E-25
  4.1950000E-03    9.9954524E-25
  4.2300001E-03    1.0014371E-24
  4.2650001E-03    1.0011490E-24
  4.3000001E-03    9.9769369E-25
  4.3350002E-03    9.9741778E-25
  4.3700002E-03    1.0035064E-24
  4.4049998E-03    1.0053845E-24
  4.4399998E-03    9.9505465E-25
  4.4749998E-03    9.8939635E-25
  4.5099999E-03    1.0061975E-24
  4.5449999E-03    1.0199076E-24
  4.5799999E-03    9.9389670E-25
  4.6150000E-03    9.6419500E-25
  4.6500000E-03    1.0020246E-24
  4.6850001E-03    1.0617844E-24
  4.7200001E-03    1.0114215E-24
  4.7550001E-03    8.9782774E-25
  4.7900002E-03    9.5557818E-25
  4.8250002E-03    1.1612852E-24
  4.8600002E-03    1.1151022E-24
  4.8949998E-03    7.5892960E-25
  4.9299998E-03    7.4606476E-25
  4.9649999E-03    1.3359290E-24
  4.9999999E-03    1.5093389E-24
  5.0349999E-03    5.7744145E-25
  5.0700000E-03    4.6425996E-26
  5.1050000E-03    1.4417312E-24
  5.1400000E-03    2.6865082E-24
  5.1750001E-03    7.3216409E-25
  5.2100001E-03   -1.8319924E-24
  5.2450001E-03    6.6144168E-25
  5.2800002E-03    5.5168940E-24
  5.3150002E-03    2.7994256E-24
  5.3500002E-03   -5.8155867E-24
  5.3849998E-03   -3.8098002E-24
  5.4199998E-03    1.0632993E-23
  5.4549999E-03    1.1441885E-23
  5.4899999E-03   -1.1486518E-23
  5.5249999E-03   -1.9235995E-23
  5.5600000E-03    1.5135043E-23
  5.5950000E-03    3.7218517E-23
  5.6300000E-03   -1.0996400E-23
  5.6650001E-03   -5.9734517E-23
  5.7000001E-03    2.3011211E-24
  5.7350001E-03    9.6901629E-23
  5.7700002E-03    2.7026245E-23
  5.8050002E-03   -1.4139188E-22
  5.8400002E-03   -8.1666131E-23
  5.8749998E-03    1.9811907E-22
  5.9099998E-03    1.8809343E-22
  5.9449999E-03   -2.4830299E-22
  5.9799999E-03   -3.6302516E-22
  6.0149999E-03    2.7534608E-22
  6.0500000E-03    6.4396707E-22
  6.0850000E-03   -2.2408782E-22
  6.1200000E-03   -1.0519524E-21
  6.1550001E-03    2.1502163E-23
  6.1900001E-03    1.6116772E-21
  6.2250001E-03    4.6804190E-22
  6.2600002E-03   -2.2972411E-21
  6.2950002E-03   -1.4218775E-21
  6.3299998E-03    3.0270909E-21
  6.3649998E-03    3.0942922E-21
  6.3999998E-03   -3.5758735E-21
  6.4349999E-03   -5.7691611E-21
  6.4699999E-03    3.5291935E-21
  6.5049999E-03    9.7415033E-21
  6.5400000E-03   -2.1562181E-21
  6.5750000E-03   -1.5176914E-20
  6.6100000E-03   -1.6586237E-21
  6.6450001E-03    2.1948200E-20
  6.6800001E-03    9.5226074E-21
  6.7150001E-03   -2.9291987E-20
  6.7500002E-03   -2.3497442E-20
  6.7850002E-03    3.5390467E-20
  6.8199998E-03    4.5958087E-20
  6.8549998E-03   -3.6753974E-20
  6.8899998E-03   -7.9094836E-20
  6.9249999E-03    2.7581459E-20
  6.9599999E-03    1.2402738E-19
  6.9949999E-03    8.9158024E-22
  7.0300000E-03   -1.7922690E-19
  7.0650000E-03   -6.0670680E-20
  7.1000000E-03    2.3823174E-19
  7.1350001E-03    1.6660807E-19
  7.1700001E-03   -2.8648020E-19
  7.2050001E-03   -3.3458804E-19
  7.2400002E-03    2.9758210E-19
  7.2750002E-03    5.7762508E-19
  7.3099998E-03   -2.2946962E-19
  7.3449998E-03   -8.9884196E-19
  7.3799998E-03    2.1705523E-20
  7.4149999E-03    1.2806760E-18
  7.4499999E-03    4.0423445E-19
  7.4850000E-03   -1.6698307E-18
  7.5200000E-03   -1.1387689E-18
  7.5550000E-03    1.9587385E-18
  7.5900001E-03    2.2685815E-18
  7.6250001E-03   -1.9657652E-18
  7.6600001E-03   -3.8472725E-18
  7.6950002E-03    1.4191749E-18
  7.7300002E-03    5.8487948E-18
  7.7650002E-03    4.7080836E-20
  7.7999998E-03   -8.1015806E-18
  7.8349998E-03   -2.8736672E-18
  7.8699999E-03    1.0205936E-17
  7.9049999E-03    7.5168814E-18
  7.9399999E-03   -1.1443963E-17
  7.9750000E-03   -1.4333050E-17
  8.0100000E-03    1.0701807E-17
  8.0450000E-03    2.3391046E-17
  8.0800001E-03   -6.4376191E-18
  8.1150001E-03   -3.4205758E-17
  8.1500001E-03   -3.2583391E-18
  8.1850002E-03    4.5400628E-17
  8.2200002E-03    2.0449023E-17
  8.2550002E-03   -5.4338858E-17
  8.2900003E-03   -4.6917698E-17
  8.3250003E-03    5.6797298E-17
  8.3600003E-03    8.3458110E-17
  8.3950004E-03   -4.6811914E-17
  8.4300004E-03   -1.2886555E-16
  8.4650004E-03    1.6870344E-17
  8.5000005E-03    1.7866960E-16
  8.5349996E-03    4.1328243E-17
  8.5699996E-03   -2.2375151E-16
  8.6049996E-03   -1.3531706E-16
  8.6399997E-03    2.4913828E-16
  8.6749997E-03    2.6932135E-16
  8.7099997E-03   -2.3342253E-16
  8.7449998E-03   -4.4068176E-16
  8.7799998E-03    1.4943799E-16
  8.8149998E-03    6.3542982E-16
  8.8499999E-03    3.3085673E-17
  8.8849999E-03   -8.2356129E-16
  8.9199999E-03   -3.4215385E-16
  8.9550000E-03    9.5503166E-16
  8.9900000E-03    7.9487043E-16
  9.0250000E-03   -9.5804657E-16
  9.0600001E-03   -1.3855795E-15
  9.0950001E-03    7.4161313E-16
  9.1300001E-03    2.0715099E-15
  9.1650002E-03   -2.0470746E-16
  9.2000002E-03   -2.7579708E-15
  9.2350002E-03   -7.4594084E-16
  9.2700003E-03    3.2865831E-15
  9.3050003E-03    2.1681939E-15
  9.3400003E-03   -3.4314133E-15
  9.3750004E-03   -4.0475194E-15
  9.4100004E-03    2.9091823E-15
  9.4450004E-03    6.2539788E-15
  9.4799995E-03   -1.4098419E-15
  9.5149996E-03   -8.5000612E-15
  9.5499996E-03   -1.3472709E-15
  9.5849996E-03    1.0310146E-14
  9.6199997E-03    5.5296835E-15
  9.6549997E-03   -1.1016522E-14
  9.6899997E-03   -1.1084688E-14
  9.7249998E-03    9.7984043E-15
  9.7599998E-03    1.7620547E-14
  9.7949998E-03   -5.7798559E-15
  9.8299999E-03   -2.4297946E-14
  9.8649999E-03   -1.8023896E-15
  9.8999999E-03    2.9763969E-14
  9.9350000E-03    1.3362400E-14
  9.9700000E-03   -3.2167435E-14
  1.0005000E-02   -2.8677283E-14
  1.0040000E-02    2.9297850E-14
  1.0075000E-02    4.6587629E-14
  1.0110000E-02   -1.8881870E-14
  1.0145000E-02   -6.4751440E-14
  1.0180000E-02   -9.4854011E-16
  1.0215000E-02    7.9535235E-14
  1.0250000E-02    3.1034603E-14
  1.0285000E-02   -8.6139761E-14
  1.0320000E-02   -7.0481788E-14
  1.0355000E-02    7.9050658E-14
  1.0390000E-02    1.1598060E-13
  1.0425000E-02   -5.2872837E-14
  1.0460000E-02   -1.6133099E-13
  1.0495000E-02    3.5421692E-15
  1.0530000E-02    1.9737014E-13
  1.0565000E-02    7.0172201E-14
  1.0600000E-02   -2.1251806E-13
  1.0635000E-02   -1.6508554E-13
  1.0670000E-02    1.9409966E-13
  1.0705000E-02    2.7224441E-13
  1.0740000E-02   -1.3050215E-13
  1.0775000E-02   -3.7621121E-13
  1.0810000E-02    1.4063512E-14
  1.0845000E-02    4.5543278E-13
  1.0880000E-02    1.5563513E-13
  1.0915000E-02   -4.8405751E-13
  1.0950000E-02   -3.6861280E-13
  1.0985000E-02    4.3543603E-13
  1.1020000E-02    6.0222937E-13
  1.1055000E-02   -2.8721567E-13
  1.1090000E-02   -8.2066249E-13
  1.1125000E-02    2.7588993E-14
  1.1160000E-02    9.7694617E-13
  1.1195000E-02    3.3823159E-13
  1.1230000E-02   -1.0180938E-12
  1.1265000E-02   -7.8258504E-13
  1.1300000E-02    8.9341165E-13
  1.1335000E-02    1.2525551E-12
  1.1370000E-02   -5.6538975E-13
  1.1405000E-02   -1.6713216E-12
  1.1440000E-02    2.1798042E-14
  1.1475000E-02    1.9448748E-12
  1.1510000E-02    7.1319941E-13
  1.1545000E-02   -1.9745137E-12
  1.1580000E-02   -1.5714606E-12
  1.1615000E-02    1.6744736E-12
  1.1650000E-02    2.4397062E-12
  1.1685000E-02   -9.9272684E-13
  1.1720000E-02   -3.1670634E-12
  1.1755000E-02   -6.8529024E-14
  1.1790000E-02    3.5824022E-12
  1.1825000E-02    1.4368059E-12
  1.1860000E-02   -3.5210441E-12
  1.1895000E-02   -2.9625670E-12
  1.1930000E-02    2.8577691E-12
  1.1965000E-02    4.4256825E-12
  1.2000000E-02   -1.5416043E-12
  1.2035000E-02   -5.5576477E-12
  1.2070000E-02   -3.7482154E-13
  1.2105000E-02    6.0790986E-12
  1.2140000E-02    2.7181124E-12
  1.2175000E-02   -5.7492513E-12
  1.2210000E-02   -5.1964717E-12
  1.2245000E-02    4.4200078E-12
  1.2280000E-02    7.4254500E-12
  1.2315000E-02   -2.0850127E-12
  1.2350000E-02   -8.9776736E-12
  1.2385000E-02   -1.0874932E-12
  1.2420000E-02    9.4519175E-12
  1.2455000E-02    4.7483502E-12
  1.2490000E-02   -8.5517106E-12
  1.2525000E-02   -8.3941959E-12
  1.2560000E-02    6.1600113E-12
  1.2595000E-02    1.1429056E-11
  1.2630000E-02   -2.3942087E-12
  1.2665000E-02   -1.3255243E-11
  1.2700000E-02   -2.3739379E-12
  1.2735000E-02    1.3380227E-11
  1.2770000E-02    7.5421232E-12
  1.2805000E-02   -1.1521941E-11
  1.2840000E-02   -1.2349587E-11
  1.2875000E-02    7.6905071E-12
  1.2910000E-02    1.5988969E-11
  1.2945000E-02   -2.2272587E-12
  1.2980000E-02   -1.7743000E-11
  1.3015000E-02   -4.2128974E-12
  1.3050000E-02    1.7121615E-11
  1.3085000E-02    1.0739180E-11
  1.3120000E-02   -1.3973609E-11
  1.3155000E-02   -1.6355235E-11
  1.3190000E-02    8.5476669E-12
  1.3225000E-02    2.0122095E-11
  1.3260000E-02   -1.4863870E-12
  1.3295000E-02   -2.1326276E-11
  1.3330000E-02   -6.2530805E-12
  1.3365000E-02    1.9620049E-11
  1.3400000E-02    1.3541183E-11
  1.3435000E-02   -1.5105235E-11
  1.3470000E-02   -1.9258648E-11
  1.3505000E-02    8.3420484E-12
  1.3540000E-02    2.2488065E-11
  1.3575000E-02   -2.7572562E-13
  1.3610000E-02   -2.2678357E-11
  1.3645000E-02   -7.9067881E-12
  1.3680000E-02    1.9753242E-11
  1.3715000E-02    1.4970199E-11
  1.3750000E-02   -1.4139336E-11
  1.3785000E-02   -1.9838848E-11
  1.3820000E-02    6.7074740E-12
  1.3855000E-02    2.1782659E-11
  1.3890000E-02    1.3642882E-12
  1.3925000E-02   -2.0549028E-11
  1.3960000E-02   -8.7835824E-12
  1.3995000E-02    1.6416717E-11
  1.4030000E-02    1.4361295E-11
  1.4065000E-02   -1.0162148E-11
  1.4100000E-02   -1.7218872E-11
  1.4135000E-02    2.9414999E-12
  1.4170000E-02    1.6954044E-11
  1.4205000E-02    3.8987854E-12
  1.4240000E-02   -1.3733704E-11
  1.4275000E-02   -9.0552505E-12
  1.4310000E-02    8.2952560E-12
  1.4345000E-02    1.1510964E-11
  1.4380000E-02   -1.8476878E-12
  1.4415000E-02   -1.0750100E-11
  1.4450000E-02   -4.1211656E-12
  1.4485000E-02    6.9056523E-12
  1.4520000E-02    8.1123693E-12
  1.4555000E-02   -8.0307088E-13
  1.4590000E-02   -8.9205978E-12
  1.4625000E-02   -6.1220569E-12
  1.4660000E-02    5.9290108E-12
  1.4695000E-02    1.2042639E-11
  1.4730000E-02    6.6449065E-13
  1.4765000E-02   -1.5082331E-11
  1.4800000E-02   -9.7555315E-12
  1.4835000E-02    1.3734947E-11
  1.4870000E-02    1.9431075E-11
  1.4905000E-02   -7.2732861E-12
  1.4940000E-02   -2.7266510E-11
  1.4975000E-02   -3.9471725E-12
  1.5010000E-02    3.0785669E-11
  1.5045000E-02    1.8367068E-11
  1.5080000E-02   -2.8022884E-11
  1.5115000E-02   -3.3353143E-11
  1.5150000E-02    1.8084874E-11
  1.5185000E-02    4.5621201E-11
  1.5220000E-02   -1.5552950E-12
  1.5255000E-02   -5.1901379E-11
  1.5290000E-02   -1.9410669E-11
  1.5325000E-02    4.9684278E-11
  1.5360000E-02    4.1345205E-11
  1.5395000E-02   -3.7881271E-11
  1.5430000E-02   -6.0043026E-11
  1.5465000E-02    1.7267141E-11
  1.5500000E-02    7.1394037E-11
  1.5535000E-02    9.4461886E-12
  1.5570000E-02   -7.2324542E-11
  1.5605000E-02   -3.8021017E-11
  1.5640000E-02    6.1562276E-11
  1.5675001E-02    6.3505361E-11
  1.5710000E-02   -3.9997675E-11
  1.5745001E-02   -8.1196772E-11
  1.5780000E-02    1.0620396E-11
  1.5814999E-02    8.7592239E-11
  1.5850000E-02    2.1958551E-11
  1.5884999E-02   -8.1186391E-11
  1.5920000E-02   -5.2430997E-11
  1.5954999E-02    6.2808439E-11
  1.5990000E-02    7.5909452E-11
  1.6024999E-02   -3.5335655E-11
  1.6060000E-02   -8.8788865E-11
  1.6094999E-02    3.0629139E-12
  1.6130000E-02    8.9246742E-11
  1.6164999E-02    2.8998116E-11
  1.6200000E-02   -7.7568396E-11
  1.6235000E-02   -5.6031204E-11
  1.6270000E-02    5.6089747E-11
  1.6305000E-02    7.4432870E-11
  1.6340001E-02   -2.8456626E-11
  1.6375000E-02   -8.2271107E-11
  1.6410001E-02   -1.2802071E-12
  1.6445000E-02    7.9079569E-11
  1.6480001E-02    2.9038653E-11
  1.6515000E-02   -6.5802058E-11
  1.6550001E-02   -5.1024827E-11
  1.6585000E-02    4.4939760E-11
  1.6620001E-02    6.4565513E-11
  1.6655000E-02   -1.9985673E-11
  1.6690001E-02   -6.8580940E-11
  1.6725000E-02   -5.5645601E-12
  1.6759999E-02    6.3076371E-11
  1.6795000E-02    2.8308487E-11
  1.6829999E-02   -4.8973568E-11
  1.6865000E-02   -4.4711016E-11
  1.6899999E-02    2.8871744E-11
  1.6935000E-02    5.2153264E-11
  1.6969999E-02   -6.8651547E-12
  1.7005000E-02   -5.0157111E-11
  1.7039999E-02   -1.3031217E-11
  1.7075000E-02    3.9868785E-11
  1.7109999E-02    2.7441433E-11
  1.7145000E-02   -2.3440725E-11
  1.7180000E-02   -3.3210684E-11
  1.7215000E-02    5.0063560E-12
  1.7250000E-02    2.8900039E-11
  1.7285001E-02    9.6502450E-12
  1.7320000E-02   -1.6940621E-11
  1.7355001E-02   -1.6381603E-11
  1.7390000E-02    2.2290999E-12
  1.7425001E-02    1.4395736E-11
  1.7460000E-02    1.0834631E-11
  1.7495001E-02   -4.5078537E-12
  1.7530000E-02   -1.8035072E-11
  1.7565001E-02   -1.0745436E-11
  1.7600000E-02    1.5143621E-11
  1.7635001E-02    2.4942229E-11
  1.7670000E-02   -2.1032262E-12
  1.7704999E-02   -3.0697101E-11
  1.7740000E-02   -1.5080683E-11
  1.7774999E-02    2.5638098E-11
  1.7810000E-02    2.9460011E-11
  1.7844999E-02   -1.2201455E-11
  1.7880000E-02   -3.7073997E-11
  1.7914999E-02   -6.6967916E-12
  1.7950000E-02    3.4250509E-11
  1.7984999E-02    2.5857004E-11
  1.8020000E-02   -1.8677613E-11
  1.8054999E-02   -3.5767812E-11
  1.8090000E-02   -3.7646522E-12
  1.8124999E-02    3.1130418E-11
  1.8160000E-02    2.2857494E-11
  1.8195000E-02   -1.4579971E-11
  1.8230001E-02   -3.0935626E-11
  1.8265000E-02   -5.7441218E-12
  1.8300001E-02    2.8682423E-11
  1.8335000E-02    2.8535601E-11
  1.8370001E-02   -8.5818661E-12
  1.8405000E-02   -3.7957863E-11
  1.8440001E-02   -1.7931746E-11
  1.8475000E-02    3.4125168E-11
  1.8510001E-02    5.0948665E-11
  1.8545000E-02    3.7025984E-13
  1.8580001E-02   -5.4205133E-11
  1.8615000E-02   -2.5902221E-11
  1.8650001E-02    6.0607325E-11
  1.8685000E-02    7.9201166E-11
  1.8719999E-02   -1.2638834E-11
  1.8755000E-02   -8.2179985E-11
  1.8789999E-02   -5.7268179E-12
  1.8825000E-02    1.2313907E-10
  1.8859999E-02    1.1089731E-10
  1.8895000E-02   -3.3094947E-11
  1.8929999E-02   -8.4990043E-11
  1.8965000E-02    5.7211680E-11
  1.8999999E-02    1.9923242E-10
  1.9035000E-02    1.3363601E-10
  1.9069999E-02   -3.4120012E-11
  1.9105000E-02   -2.7063674E-11
  1.9140000E-02    1.8519843E-10
  1.9175000E-02    3.2160932E-10
  1.9210000E-02    2.0135445E-10
  1.9245001E-02    3.3014959E-11
  1.9280000E-02    1.2483618E-10
  1.9315001E-02    4.1316997E-10
  1.9350000E-02    5.3029725E-10
  1.9385001E-02    3.6225839E-10
  1.9420000E-02    2.5665114E-10
  1.9455001E-02    5.0410087E-10
  1.9490000E-02    8.6401147E-10
  1.9525001E-02    9.2040869E-10
  1.9560000E-02    7.5268358E-10
  1.9595001E-02    8.3346263E-10
  1.9630000E-02    1.2772099E-09
  1.9664999E-02    1.6550499E-09
  1.9700000E-02    1.6947164E-09
  1.9734999E-02    1.7213797E-09
  1.9770000E-02    2.1228044E-09
  1.9804999E-02    2.7375755E-09
  1.9840000E-02    3.1548379E-09
  1.9874999E-02    3.3843082E-09
  1.9910000E-02    3.8097787E-09
  1.9944999E-02    4.5790793E-09
  1.9980000E-02    5.4320775E-09
  2.0014999E-02    6.1527996E-09
  2.0050000E-02    6.8811095E-09
  2.0085000E-02    7.8778237E-09
  2.0120000E-02    9.1762926E-09
  2.0155000E-02    1.0588878E-08
  2.0190001E-02    1.1995566E-08
  2.0225000E-02    1.3528942E-08
  2.0260001E-02    1.5427384E-08
  2.0295000E-02    1.7732859E-08
  2.0330001E-02    2.0246258E-08
  2.0365000E-02    2.2854502E-08
  2.0400001E-02    2.5769520E-08
  2.0435000E-02    2.9271776E-08
  2.0470001E-02    3.3318770E-08
  2.0505000E-02    3.7671601E-08
  2.0540001E-02    4.2358113E-08
  2.0575000E-02    4.7699405E-08
  2.0609999E-02    5.3882363E-08
  2.0645000E-02    6.0784082E-08
  2.0679999E-02    6.8291939E-08
  2.0715000E-02    7.6569378E-08
  2.0749999E-02    8.5897511E-08
  2.0785000E-02    9.6389726E-08
  2.0819999E-02    1.0800198E-07
  2.0855000E-02    1.2075375E-07
  2.0889999E-02    1.3483299E-07
  2.0925000E-02    1.5050203E-07
  2.0959999E-02    1.6793966E-07
  2.0995000E-02    1.8716959E-07
  2.1029999E-02    2.0822613E-07
  2.1065000E-02    2.3138372E-07
  2.1100000E-02    2.5703503E-07
  2.1135001E-02    2.8535462E-07
  2.1170000E-02    3.1634056E-07
  2.1205001E-02    3.5018851E-07
  2.1240000E-02    3.8738017E-07
  2.1275001E-02    4.2833025E-07
  2.1310000E-02    4.7312949E-07
  2.1345001E-02    5.2186402E-07
  2.1380000E-02    5.7503269E-07
  2.1415001E-02    6.3325854E-07
  2.1450000E-02    6.9684489E-07
  2.1485001E-02    7.6590754E-07
  2.1520000E-02    8.4089248E-07
  2.1555001E-02    9.2247296E-07
  2.1590000E-02    1.0111910E-06
  2.1624999E-02    1.1074219E-06
  2.1660000E-02    1.2115682E-06
  2.1694999E-02    1.3242222E-06
  2.1730000E-02    1.4461780E-06
  2.1764999E-02    1.5781112E-06
  2.1800000E-02    1.7204760E-06
  2.1834999E-02    1.8738633E-06
  2.1870000E-02    2.0391014E-06
  2.1904999E-02    2.2171205E-06
  2.1940000E-02    2.4086396E-06
  2.1974999E-02    2.6142507E-06
  2.2010000E-02    2.8348322E-06
  2.2045000E-02    3.0715328E-06
  2.2080000E-02    3.3252948E-06
  2.2115000E-02    3.5968314E-06
  2.2150001E-02    3.8868543E-06
  2.2185000E-02    4.1967983E-06
  2.2220001E-02    4.5281618E-06
  2.2255000E-02    4.8812494E-06
  2.2290001E-02    5.2569530E-06
  2.2325000E-02    5.6571744E-06
  2.2360001E-02    6.0830007E-06
  2.2395000E-02    6.5352060E-06
  2.2430001E-02    7.0151586E-06
  2.2465000E-02    7.5240750E-06
  2.2500001E-02    8.0630725E-06
  2.2535000E-02    8.6336422E-06
  2.2569999E-02    9.2370428E-06
  2.2605000E-02    9.8743276E-06
  2.2639999E-02    1.0546940E-05
  2.2675000E-02    1.1256344E-05
  2.2709999E-02    1.2003550E-05
  2.2745000E-02    1.2789735E-05
  2.2779999E-02    1.3616173E-05
  2.2815000E-02    1.4484394E-05
  2.2849999E-02    1.5395699E-05
  2.2885000E-02    1.6350832E-05
  2.2919999E-02    1.7351062E-05
  2.2955000E-02    1.8397777E-05
  2.2990000E-02    1.9491539E-05
  2.3025000E-02    2.0633461E-05
  2.3060000E-02    2.1825514E-05
  2.3095001E-02    2.3067665E-05
  2.3130000E-02    2.4359750E-05
  2.3165001E-02    2.5703948E-05
  2.3200000E-02    2.7101447E-05
  2.3235001E-02    2.8551347E-05
  2.3270000E-02    3.0053785E-05
  2.3305001E-02    3.1609976E-05
  2.3340000E-02    3.3220800E-05
  2.3375001E-02    3.4885667E-05
  2.3410000E-02    3.6603527E-05
  2.3445001E-02    3.8374747E-05
  2.3480000E-02    4.0200375E-05
  2.3514999E-02    4.2078402E-05
  2.3550000E-02    4.4007447E-05
  2.3584999E-02    4.5988578E-05
  2.3620000E-02    4.8020047E-05
  2.3654999E-02    5.0098988E-05
  2.3690000E-02    5.2225754E-05
  2.3724999E-02    5.4400502E-05
  2.3760000E-02    5.6618617E-05
  2.3794999E-02    5.8876783E-05
  2.3830000E-02    6.1175888E-05
  2.3864999E-02    6.3512918E-05
  2.3900000E-02    6.5882989E-05
  2.3934999E-02    6.8285823E-05
  2.3970000E-02    7.0718677E-05
  2.4005000E-02    7.3175826E-05
  2.4040001E-02    7.5654083E-05
  2.4075000E-02    7.8150610E-05
  2.4110001E-02    8.0661921E-05
  2.4145000E-02    8.3183739E-05
  2.4180001E-02    8.5709398E-05
  2.4215000E-02    8.8236229E-05
  2.4250001E-02    9.0761685E-05
  2.4285000E-02    9.3275870E-05
  2.4320001E-02    9.5774602E-05
  2.4355000E-02    9.8258170E-05
  2.4390001E-02    1.0071676E-04
  2.4425000E-02    1.0314225E-04
  2.4460001E-02    1.0553360E-04
  2.4495000E-02    1.0788313E-04
  2.4529999E-02    1.1018303E-04
  2.4565000E-02    1.1243143E-04
  2.4599999E-02    1.1462038E-04
  2.4635000E-02    1.1674028E-04
  2.4669999E-02    1.1878923E-04
  2.4705000E-02    1.2076178E-04
  2.4739999E-02    1.2264789E-04
  2.4775000E-02    1.2444348E-04
  2.4809999E-02    1.2614421E-04
  2.4845000E-02    1.2774023E-04
  2.4879999E-02    1.2922673E-04
  2.4915000E-02    1.3060099E-04
  2.4950000E-02    1.3185546E-04
  2.4985000E-02    1.3298377E-04
  2.5020000E-02    1.3398130E-04
  2.5055001E-02    1.3484291E-04
  2.5090000E-02    1.3556640E-04
  2.5125001E-02    1.3614682E-04
  2.5160000E-02    1.3657426E-04
  2.5195001E-02    1.3684783E-04
  2.5230000E-02    1.3697037E-04
  2.5265001E-02    1.3693373E-04
  2.5300000E-02    1.3673129E-04
  2.5335001E-02    1.3636614E-04
  2.5370000E-02    1.3583701E-04
  2.5405001E-02    1.3513947E-04
  2.5440000E-02    1.3427452E-04
  2.5474999E-02    1.3324081E-04
  2.5510000E-02    1.3203494E-04
  2.5544999E-02    1.3066195E-04
  2.5580000E-02    1.2912629E-04
  2.5614999E-02    1.2742361E-04
  2.5650000E-02    1.2555487E-04
  2.5684999E-02    1.2352756E-04
  2.5720000E-02    1.2134372E-04
  2.5754999E-02    1.1900411E-04
  2.5790000E-02    1.1651494E-04
  2.5824999E-02    1.1388297E-04
  2.5860000E-02    1.1111159E-04
  2.5895000E-02    1.0820667E-04
  2.5930000E-02    1.0517524E-04
  2.5965000E-02    1.0202096E-04
  2.6000001E-02    9.8751931E-05
  2.6035000E-02    9.5380332E-05
  2.6070001E-02    9.1912196E-05
  2.6105000E-02    8.8353256E-05
  2.6140001E-02    8.4715532E-05
  2.6175000E-02    8.1006394E-05
  2.6210001E-02    7.7232413E-05
  2.6245000E-02    7.3408824E-05
  2.6280001E-02    6.9546375E-05
  2.6315000E-02    6.5648688E-05
  2.6350001E-02    6.1727151E-05
  2.6385000E-02    5.7797104E-05
  2.6419999E-02    5.3868025E-05
  2.6455000E-02    4.9947361E-05
  2.6489999E-02    4.6045672E-05
  2.6525000E-02    4.2175383E-05
  2.6559999E-02    3.8347989E-05
  2.6595000E-02    3.4570421E-05
  2.6629999E-02    3.0851224E-05
  2.6665000E-02    2.7204364E-05
  2.6699999E-02    2.3640056E-05
  2.6735000E-02    2.0163687E-05
  2.6769999E-02    1.6785227E-05
  2.6805000E-02    1.3514415E-05
  2.6839999E-02    1.0355121E-05
  2.6875000E-02    7.3176579E-06
  2.6910000E-02    4.4117423E-06
  2.6945001E-02    1.6398191E-06
  2.6980000E-02   -9.9253305E-07