 -4.8000002E-03    1.0000000E-24
 -4.7650002E-03    1.0000001E-24
 -4.7300002E-03    1.0000002E-24
 -4.6950001E-03    1.0000002E-24
 -4.6600001E-03    1.0000001E-24
 -4.6250001E-03    1.0000001E-24
 -4.5900000E-03    1.0000001E-24
 -4.5550000E-03    1.0000001E-24
 -4.5200000E-03    1.0000003E-24
 -4.4849999E-03    1.0000003E-24
 -4.4499999E-03    9.9999992E-25
 -4.4149999E-03    9.9999982E-25
 -4.3799998E-03    9.9999992E-25
 -4.3449998E-03    1.0000004E-24
 -4.3100002E-03    1.0000005E-24
 -4.2750002E-03    1.0000002E-24
 -4.2400002E-03    9.9999982E-25
 -4.2050001E-03    9.9999982E-25
 -4.1700001E-03    1.0000002E-24
 -4.1350001E-03    1.0000001E-24
 -4.1000000E-03    1.0000000E-24
 -4.0650000E-03    1.0000001E-24
 -4.0300000E-03    1.0000042E-24
 -3.9949999E-03    9.9997803E-25
 -3.9599999E-03    9.9998996E-25
 -3.9249999E-03    1.0006535E-24
 -3.8900001E-03    9.9764921E-25
 -3.8550000E-03    9.9784682E-25
 -3.8200000E-03    1.0324658E-24
 -3.7849999E-03    9.4979524E-25
 -3.7499999E-03    8.4407131E-25
 -3.7150001E-03    1.5614133E-24
 -3.6800001E-03    1.0630102E-24
 -3.6450000E-03   -1.3633892E-24
 -3.6100000E-03    2.7429258E-24
 -3.5750000E-03    3.6947089E-24
 -3.5399999E-03    5.9845737E-24
 -3.5049999E-03    8.8425273E-24
 -3.4700001E-03   -1.4115189E-22
 -3.4350001E-03    8.6150711E-23
 -3.4000000E-03    9.6728544E-22
 -3.3650000E-03   -1.4325678E-21
 -3.3300000E-03   -3.7478903E-21
 -3.2949999E-03    9.5933677E-21
 -3.2599999E-03    8.3215686E-21
 -3.2250001E-03   -4.2207592E-20
 -3.1900001E-03   -1.3789540E-21
 -3.1550000E-03    1.3851461E-19
 -3.1200000E-03   -7.4537368E-20
 -3.0850000E-03   -3.5771873E-19
 -3.0499999E-03    3.6591624E-19
 -3.0149999E-03    7.5544617E-19
 -2.9800001E-03   -1.1093038E-18
 -2.9450001E-03   -1.3989787E-18
 -2.9100000E-03    2.4654327E-18
 -2.8750000E-03    2.6908924E-18
 -2.8400000E-03   -4.1119731E-18
 -2.8049999E-03   -6.5579677E-18
 -2.7699999E-03    4.8839816E-18
 -2.7350001E-03    1.9061677E-17
 -2.7000001E-03   -3.4137061E-18
 -2.6650000E-03   -5.4091421E-17
 -2.6300000E-03    9.5808587E-19
 -2.5950000E-03    1.3586078E-16
 -2.5599999E-03   -5.8358345E-18
 -2.5249999E-03   -2.9631560E-16
 -2.4900001E-03    3.3857886E-17
 -2.4550001E-03    5.6520957E-16
 -2.4200000E-03   -9.2543511E-17
 -2.3850000E-03   -9.5720779E-16
 -2.3500000E-03    1.3569367E-16
 -2.3149999E-03    1.4676904E-15
 -2.2799999E-03    1.1232973E-17
 -2.2450001E-03   -2.0856638E-15
 -2.2100001E-03   -7.2304744E-16
 -2.1750000E-03    2.8090662E-15
 -2.1400000E-03    2.5807129E-15
 -2.1050000E-03   -3.6125248E-15
 -2.0699999E-03   -6.2526003E-15
 -2.0349999E-03    4.2997070E-15
 -2.0000001E-03    1.2254896E-14
 -1.9650001E-03   -4.2056681E-15
 -1.9300000E-03   -2.0669395E-14
 -1.8950000E-03    1.8191983E-15
 -1.8600000E-03    3.0880480E-14
 -1.8250000E-03    5.4279726E-15
 -1.7900000E-03   -4.1267367E-14
 -1.7550000E-03   -2.0772799E-14
 -1.7199999E-03    4.8760814E-14
 -1.6850000E-03    4.6752729E-14
 -1.6500000E-03   -4.8467611E-14
 -1.6150000E-03   -8.3084066E-14
 -1.5800000E-03    3.3872207E-14
 -1.5450000E-03    1.2491858E-13
 -1.5100000E-03    2.2678473E-15
 -1.4750001E-03   -1.6247867E-13
 -1.4400000E-03   -6.6910182E-14
 -1.4050000E-03    1.8116071E-13
 -1.3700000E-03    1.6513691E-13
 -1.3350000E-03   -1.6022475E-13
 -1.3000000E-03   -2.9477272E-13
 -1.2650000E-03    7.2444953E-14
 -1.2300001E-03    4.3557538E-13
 -1.1950000E-03    1.0702643E-13
 -1.1600000E-03   -5.4174162E-13
 -1.1250000E-03   -3.8050550E-13
 -1.0900000E-03    5.5324739E-13
 -1.0550000E-03    7.1452902E-13
 -1.0200000E-03   -4.2346015E-13
 -9.8500005E-04   -1.0557350E-12
 -9.5000002E-04    1.2987803E-13
 -9.1499998E-04    1.3583016E-12
 -8.8000001E-04    3.5057019E-13
 -8.4499997E-04   -1.5693548E-12
 -8.1000000E-04   -1.0479603E-12
 -7.7500002E-04    1.5789009E-12
 -7.3999999E-04    1.9225895E-12
 -7.0500001E-04   -1.2546719E-12
 -6.6999998E-04   -2.7989911E-12
 -6.3500000E-04    6.1297267E-13
 -6.0000003E-04    3.5365131E-12
 -5.6499999E-04    1.4032899E-13
 -5.3000002E-04   -4.3765200E-12
 -4.9499999E-04   -1.0336800E-12
 -4.6000001E-04    5.8737832E-12
 -4.2500001E-04    2.8813883E-12
 -3.9000000E-04   -8.0367518E-12
 -3.5500000E-04   -6.9662635E-12
 -3.1999999E-04    9.5765991E-12
 -2.8499999E-04    1.3761695E-11
 -2.5000001E-04   -8.5988543E-12
 -2.1499999E-04   -2.2438891E-11
 -1.8000000E-04    3.9350493E-12
 -1.4500000E-04    3.2211230E-11
 -1.1000000E-04    5.5539510E-12
 -7.5000004E-05   -4.2836842E-11
 -3.9999999E-05   -2.3255745E-11
 -4.9999999E-06    5.1231613E-11
  2.9999999E-05    5.3340669E-11
  6.5000000E-05   -4.7942948E-11
  9.9999997E-05   -9.3622395E-11
  1.3499999E-04    2.1357209E-11
  1.7000000E-04    1.3120145E-10
  2.0500000E-04    3.1884575E-11
  2.3999999E-04   -1.4937622E-10
  2.7500000E-04   -1.0342700E-10
  3.1000000E-04    1.3845576E-10
  3.4500001E-04    1.8218434E-10
  3.8000001E-04   -9.4792452E-11
  4.1499999E-04   -2.6107710E-10
  4.4999999E-04    9.7231008E-12
  4.8500000E-04    3.2664224E-10
  5.2000000E-04    1.2931242E-10
  5.5499998E-04   -3.4376199E-10
  5.9000001E-04   -3.1431216E-10
  6.2499999E-04    2.6583510E-10
  6.6000002E-04    4.9433241E-10
  6.9500000E-04   -7.6006389E-11
  7.3000003E-04   -5.9437844E-10
  7.6500000E-04   -1.8321081E-10
  7.9999998E-04    5.7081112E-10
  8.3500001E-04    4.3917944E-10
  8.6999999E-04   -4.3692427E-10
  9.0500002E-04   -6.4842770E-10
  9.4000000E-04    2.1670576E-10
  9.7499997E-04    7.9346385E-10
  1.0100000E-03    9.4294496E-11
  1.0450000E-03   -8.1846119E-10
  1.0800000E-03   -4.6782733E-10
  1.1150000E-03    6.4488936E-10
  1.1500000E-03    7.8304696E-10
  1.1849999E-03   -2.8089864E-10
  1.2200000E-03   -9.0407853E-10
  1.2550000E-03   -1.5921273E-10
  1.2900000E-03    7.6780293E-10
  1.3250000E-03    5.0783022E-10
  1.3600000E-03   -4.2261053E-10
  1.3950000E-03   -6.0105459E-10
  1.4299999E-03    8.8435530E-11
  1.4650000E-03    5.0032012E-10
  1.5000000E-03    1.0796253E-10
  1.5350000E-03   -3.7942730E-10
  1.5700000E-03   -2.9149722E-10
  1.6050000E-03    1.0952689E-10
  1.6400000E-03    2.5605440E-10
  1.6749999E-03    8.4089846E-11
  1.7100000E-03   -8.6427872E-11
  1.7450000E-03   -1.7657611E-11
  1.7800000E-03    3.0448638E-10
  1.8150000E-03    6.4125372E-10
  1.8500000E-03    5.5197297E-10
  1.8850000E-03   -1.1850240E-10
  1.9200000E-03   -8.2181928E-10
  1.9550000E-03   -9.2828356E-10
  1.9900000E-03   -7.9258805E-10
  2.0250001E-03   -1.5283148E-09
  2.0600001E-03   -3.4765621E-09
  2.0949999E-03   -5.5042393E-09
  2.1299999E-03   -6.4700632E-09
  2.1650000E-03   -7.1385475E-09
  2.2000000E-03   -9.4530694E-09
  2.2350000E-03   -1.3530091E-08
  2.2700001E-03   -1.7166698E-08
  2.3050001E-03   -1.9559458E-08
  2.3399999E-03   -2.3291639E-08
  2.3749999E-03   -3.0539670E-08
  2.4100000E-03   -3.9635616E-08
  2.4450000E-03   -4.8267058E-08
  2.4800000E-03   -5.8042854E-08
  2.5150001E-03   -7.2310762E-08
  2.5500001E-03   -9.0869030E-08
  2.5849999E-03   -1.1097620E-07
  2.6199999E-03   -1.3289289E-07
  2.6550000E-03   -1.5999090E-07
  2.6900000E-03   -1.9359972E-07
  2.7250000E-03   -2.3215276E-07
  2.7600001E-03   -2.7552323E-07
  2.7950001E-03   -3.2651471E-07
  2.8299999E-03   -3.8800201E-07
  2.8649999E-03   -4.6113988E-07
  2.9000000E-03   -5.4644175E-07
  2.9350000E-03   -6.4559339E-07
  2.9700000E-03   -7.6217583E-07
  3.0050001E-03   -9.0008717E-07
  3.0400001E-03   -1.0611819E-06
  3.0749999E-03   -1.2464656E-06
  3.1099999E-03   -1.4600696E-06
  3.1450000E-03   -1.7087642E-06
  3.1800000E-03   -1.9967158E-06
  3.2150000E-03   -2.3255564E-06
  3.2500001E-03   -2.7011567E-06
  3.2850001E-03   -3.1345312E-06
  3.3199999E-03   -3.6345784E-06
  3.3549999E-03   -4.2065203E-06
  3.3900000E-03   -4.8587081E-06
  3.4250000E-03   -5.6045742E-06
  3.4600000E-03   -6.4575870E-06
  3.4950001E-03   -7.4301424E-06
  3.5300001E-03   -8.5368274E-06
  3.5649999E-03   -9.7935445E-06
  3.5999999E-03   -1.1215707E-05
  3.6350000E-03   -1.2823119E-05
  3.6700000E-03   -1.4642334E-05
  3.7050000E-03   -1.6697475E-05
  3.7400001E-03   -1.9006537E-05
  3.7750001E-03   -2.1595208E-05
  3.8099999E-03   -2.4503748E-05
  3.8449999E-03   -2.7771932E-05
  3.8800000E-03   -3.1429925E-05
  3.9149998E-03   -3.5511650E-05
  3.9499998E-03   -4.0065053E-05
  3.9849998E-03   -4.5143199E-05
  4.0199999E-03   -5.0794966E-05
  4.0549999E-03   -5.7070662E-05
  4.0899999E-03   -6.4029540E-05
  4.1250000E-03   -7.1735267E-05
  4.1600000E-03   -8.0251310E-05
  4.1950000E-03   -8.9648027E-05
  4.2300001E-03   -1.0000542E-04
  4.2650001E-03   -1.1140393E-04
  4.3000001E-03   -1.2392391E-04
  4.3350002E-03   -1.3765396E-04
  4.3700002E-03   -1.5269005E-04
  4.4049998E-03   -1.6913068E-04
  4.4399998E-03   -1.8707805E-04
  4.4749998E-03   -2.0663867E-04
  4.5099999E-03   -2.2792433E-04
  4.5449999E-03   -2.5105197E-04
  4.5799999E-03   -2.7613959E-04
  4.6150000E-03   -3.0330717E-04
  4.6500000E-03   -3.3268120E-04
  4.6850001E-03   -3.6439206E-04
  4.7200001E-03   -3.9857259E-04
  4.7550001E-03   -4.3535544E-04
  4.7900002E-03   -4.7486628E-04
  4.8250002E-03   -5.1723229E-04
  4.8600002E-03   -5.6259462E-04
  4.8949998E-03   -6.1109121E-04
  4.9299998E-03   -6.6284358E-04
  4.9649999E-03   -7.1797188E-04
  4.9999999E-03   -7.7659800E-04
  5.0349999E-03   -8.3883636E-04
  5.0700000E-03   -9.0479822E-04
  5.1050000E-03   -9.7458996E-04
  5.1400000E-03   -1.0483018E-03
  5.1750001E-03   -1.1260085E-03
  5.2100001E-03   -1.2077705E-03
  5.2450001E-03   -1.2936461E-03
  5.2800002E-03   -1.3836920E-03
  5.3150002E-03   -1.4779337E-03
  5.3500002E-03   -1.5763530E-03
  5.3849998E-03   -1.6789323E-03
  5.4199998E-03   -1.7856571E-03
  5.4549999E-03   -1.8964693E-03
  5.4899999E-03   -2.0112721E-03
  5.5249999E-03   -2.1299589E-03
  5.5600000E-03   -2.2524020E-03
  5.5950000E-03   -2.3784395E-03
  5.6300000E-03   -2.5078757E-03
  5.6650001E-03   -2.6404827E-03
  5.7000001E-03   -2.7760123E-03
  5.7350001E-03   -2.9141861E-03
  5.7700002E-03   -3.0546726E-03
  5.8050002E-03   -3.1971151E-03
  5.8400002E-03   -3.3411453E-03
  5.8749998E-03   -3.4863444E-03
  5.9099998E-03   -3.6322456E-03
  5.9449999E-03   -3.7783659E-03
  5.9799999E-03   -3.9241910E-03
  6.0149999E-03   -4.0691714E-03
  6.0500000E-03   -4.2127301E-03
  6.0850000E-03   -4.3542483E-03
  6.1200000E-03   -4.4930778E-03
  6.1550001E-03   -4.6285666E-03
  6.1900001E-03   -4.7600344E-03
  6.2250001E-03   -4.8867622E-03
  6.2600002E-03   -5.0080204E-03
  6.2950002E-03   -5.1230690E-03
  6.3299998E-03   -5.2311500E-03
  6.3649998E-03   -5.3315037E-03
  6.3999998E-03   -5.4233642E-03
  6.4349999E-03   -5.5059586E-03
  6.4699999E-03   -5.5785207E-03
  6.5049999E-03   -5.6402939E-03
  6.5400000E-03   -5.6905374E-03
  6.5750000E-03   -5.7285354E-03
  6.6100000E-03   -5.7535791E-03
  6.6450001E-03   -5.7649803E-03
  6.6800001E-03   -5.7621021E-03
  6.7150001E-03   -5.7443506E-03
  6.7500002E-03   -5.7111639E-03
  6.7850002E-03   -5.6620287E-03
  6.8199998E-03   -5.5964775E-03
  6.8549998E-03   -5.5141044E-03
  6.8899998E-03   -5.4145842E-03
  6.9249999E-03   -5.2976571E-03
  6.9599999E-03   -5.1631182E-03
  6.9949999E-03   -5.0108349E-03
  7.0300000E-03   -4.8407614E-03
  7.0650000E-03   -4.6529500E-03
  7.1000000E-03   -4.4475426E-03
  7.1350001E-03   -4.2247409E-03
  7.1700001E-03   -3.9848345E-03
  7.2050001E-03   -3.7282375E-03
  7.2400002E-03   -3.4554543E-03
  7.2750002E-03   -3.1670670E-03
  7.3099998E-03   -2.8637496E-03
  7.3449998E-03   -2.5462657E-03
  7.3799998E-03   -2.2154751E-03
  7.4149999E-03   -1.8723462E-03
  7.4499999E-03   -1.5179227E-03
  7.4850000E-03   -1.1533055E-03
  7.5200000E-03   -7.7968423E-04
  7.5550000E-03   -3.9833895E-04
  7.5900001E-03   -1.0619526E-05
  7.6250001E-03    3.8206580E-04
  7.6600001E-03    7.7827089E-04
  7.6950002E-03    1.1765017E-03
  7.7300002E-03    1.5752000E-03
  7.7650002E-03    1.9727778E-03
  7.7999998E-03    2.3676397E-03
  7.8349998E-03    2.7581675E-03
  7.8699999E-03    3.1427387E-03
  7.9049999E-03    3.5197416E-03
  7.9399999E-03    3.8875600E-03
  7.9750000E-03    4.2446028E-03
  8.0100000E-03    4.5893346E-03
  8.0450000E-03    4.9202531E-03
  8.0800001E-03    5.2358881E-03
  8.1150001E-03    5.5348482E-03
  8.1500001E-03    5.8158305E-03
  8.1850002E-03    6.0776072E-03
  8.2200002E-03    6.3190209E-03
  8.2550002E-03    6.5390160E-03
  8.2900003E-03    6.7366613E-03
  8.3250003E-03    6.9111423E-03
  8.3600003E-03    7.0617413E-03
  8.3950004E-03    7.1878629E-03
  8.4300004E-03    7.2890692E-03
  8.4650004E-03    7.3650512E-03
  8.5000005E-03    7.4156197E-03
  8.5349996E-03    7.4407342E-03
  8.5699996E-03    7.4405102E-03
  8.6049996E-03    7.4151885E-03
  8.6399997E-03    7.3651369E-03
  8.6749997E-03    7.2908802E-03
  8.7099997E-03    7.1930895E-03
  8.7449998E-03    7.0725540E-03
  8.7799998E-03    6.9301836E-03
  8.8149998E-03    6.7670154E-03
  8.8499999E-03    6.5842038E-03
  8.8849999E-03    6.3830139E-03
  8.9199999E-03    6.1648139E-03
  8.9550000E-03    5.9310393E-03
  8.9900000E-03    5.6832023E-03
  9.0250000E-03    5.4229111E-03
  9.0600001E-03    5.1518297E-03
  9.0950001E-03    4.8716464E-03
  9.1300001E-03    4.5840857E-03
  9.1650002E-03    4.2909058E-03
  9.2000002E-03    3.9938777E-03
  9.2350002E-03    3.6947618E-03
  9.2700003E-03    3.3952873E-03
  9.3050003E-03    3.0971621E-03
  9.3400003E-03    2.8020686E-03
  9.3750004E-03    2.5116331E-03
  9.4100004E-03    2.2274083E-03
  9.4450004E-03    1.9508683E-03
  9.4799995E-03    1.6834001E-03
  9.5149996E-03    1.4263114E-03
  9.5499996E-03    1.1808132E-03
  9.5849996E-03    9.4798009E-04
  9.6199997E-03    7.2876317E-04
  9.6549997E-03    5.2401656E-04
  9.6899997E-03    3.3446128E-04
  9.7249998E-03    1.6066627E-04
  9.7599998E-03    3.0761753E-06
  9.7949998E-03   -1.3799181E-04
  9.8299999E-03   -2.6236789E-04
  9.8649999E-03   -3.7002139E-04
  9.8999999E-03   -4.6105121E-04
  9.9350000E-03   -5.3568056E-04
  9.9700000E-03   -5.9425633E-04
  1.0005000E-02   -6.3725852E-04
  1.0040000E-02   -6.6528498E-04
  1.0075000E-02   -6.7902799E-04
  1.0110000E-02   -6.7928043E-04
  1.0145000E-02   -6.6692976E-04
  1.0180000E-02   -6.4293394E-04
  1.0215000E-02   -6.0831755E-04
  1.0250000E-02   -5.6416646E-04
  1.0285000E-02   -5.1161769E-04
  1.0320000E-02   -4.5185845E-04
  1.0355000E-02   -3.8609465E-04
  1.0390000E-02   -3.1551684E-04
  1.0425000E-02   -2.4131725E-04
  1.0460000E-02   -1.6469593E-04
  1.0495000E-02   -8.6830943E-05
  1.0530000E-02   -8.8636834E-06
  1.0565000E-02    6.8113499E-05
  1.0600000E-02    1.4307370E-04
  1.0635000E-02    2.1504707E-04
  1.0670000E-02    2.8312264E-04
  1.0705000E-02    3.4647316E-04
  1.0740000E-02    4.0436332E-04
  1.0775000E-02    4.5615333E-04
  1.0810000E-02    5.0129957E-04
  1.0845000E-02    5.3934363E-04
  1.0880000E-02    5.6992867E-04
  1.0915000E-02    5.9281988E-04
  1.0950000E-02    6.0788239E-04
  1.0985000E-02    6.1506795E-04
  1.1020000E-02    6.1443413E-04
  1.1055000E-02    6.0614262E-04
  1.1090000E-02    5.9044507E-04
  1.1125000E-02    5.6768232E-04
  1.1160000E-02    5.3827325E-04
  1.1195000E-02    5.0270715E-04
  1.1230000E-02    4.6154766E-04
  1.1265000E-02    4.1542007E-04
  1.1300000E-02    3.6499364E-04
  1.1335000E-02    3.1097920E-04
  1.1370000E-02    2.5412207E-04
  1.1405000E-02    1.9518941E-04
  1.1440000E-02    1.3496043E-04
  1.1475000E-02    7.4219141E-05
  1.1510000E-02    1.3743896E-05
  1.1545000E-02   -4.5709574E-05
  1.1580000E-02   -1.0341474E-04
  1.1615000E-02   -1.5867122E-04
  1.1650000E-02   -2.1081981E-04
  1.1685000E-02   -2.5925686E-04
  1.1720000E-02   -3.0342763E-04
  1.1755000E-02   -3.4284021E-04
  1.1790000E-02   -3.7708765E-04
  1.1825000E-02   -4.0582946E-04
  1.1860000E-02   -4.2878219E-04
  1.1895000E-02   -4.4574690E-04
  1.1930000E-02   -4.5661343E-04
  1.1965000E-02   -4.6134804E-04
  1.2000000E-02   -4.5999739E-04
  1.2035000E-02   -4.5268220E-04
  1.2070000E-02   -4.3958798E-04
  1.2105000E-02   -4.2097628E-04
  1.2140000E-02   -3.9718143E-04
  1.2175000E-02   -3.6859835E-04
  1.2210000E-02   -3.3568466E-04
  1.2245000E-02   -2.9894462E-04
  1.2280000E-02   -2.5890581E-04
  1.2315000E-02   -2.1613251E-04
  1.2350000E-02   -1.7123725E-04
  1.2385000E-02   -1.2484912E-04
  1.2420000E-02   -7.7594079E-05
  1.2455000E-02   -3.0107674E-05
  1.2490000E-02    1.6974509E-05
  1.2525000E-02    6.3043510E-05
  1.2560000E-02    1.0751239E-04
  1.2595000E-02    1.4980810E-04
  1.2630000E-02    1.8939644E-04
  1.2665000E-02    2.2579754E-04
  1.2700000E-02    2.5857688E-04
  1.2735000E-02    2.8735161E-04
  1.2770000E-02    3.1179693E-04
  1.2805000E-02    3.3163637E-04
  1.2840000E-02    3.4665960E-04
  1.2875000E-02    3.5674527E-04
  1.2910000E-02    3.6183538E-04
  1.2945000E-02    3.6191833E-04
  1.2980000E-02    3.5705385E-04
  1.3015000E-02    3.4737543E-04
  1.3050000E-02    3.3307320E-04
  1.3085000E-02    3.1440583E-04
  1.3120000E-02    2.9169582E-04
  1.3155000E-02    2.6529667E-04
  1.3190000E-02    2.3559750E-04
  1.3225000E-02    2.0304386E-04
  1.3260000E-02    1.6811964E-04
  1.3295000E-02    1.3133217E-04
  1.3330000E-02    9.3215305E-05
  1.3365000E-02    5.4304142E-05
  1.3400000E-02    1.5120237E-05
  1.3435000E-02   -2.3796389E-05
  1.3470000E-02   -6.1892293E-05
  1.3505000E-02   -9.8651690E-05
  1.3540000E-02   -1.3359748E-04
  1.3575000E-02   -1.6626943E-04
  1.3610000E-02   -1.9624401E-04
  1.3645000E-02   -2.2313933E-04
  1.3680000E-02   -2.4660325E-04
  1.3715000E-02   -2.6634490E-04
  1.3750000E-02   -2.8214761E-04
  1.3785000E-02   -2.9383507E-04
  1.3820000E-02   -3.0128058E-04
  1.3855000E-02   -3.0443197E-04
  1.3890000E-02   -3.0328881E-04
  1.3925000E-02   -2.9790599E-04
  1.3960000E-02   -2.8841812E-04
  1.3995000E-02   -2.7500652E-04
  1.4030000E-02   -2.5788185E-04
  1.4065000E-02   -2.3732483E-04
  1.4100000E-02   -2.1367738E-04
  1.4135000E-02   -1.8730127E-04
  1.4170000E-02   -1.5859018E-04
  1.4205000E-02   -1.2797926E-04
  1.4240000E-02   -9.5919379E-05
  1.4275000E-02   -6.2878855E-05
  1.4310000E-02   -2.9346695E-05
  1.4345000E-02    4.1999151E-06
  1.4380000E-02    3.7297945E-05
  1.4415000E-02    6.9470101E-05
  1.4450000E-02    1.0024889E-04
  1.4485000E-02    1.2921923E-04
  1.4520000E-02    1.5599828E-04
  1.4555000E-02    1.8021309E-04
  1.4590000E-02    2.0153743E-04
  1.4625000E-02    2.1970921E-04
  1.4660000E-02    2.3450189E-04
  1.4695000E-02    2.4572804E-04
  1.4730000E-02    2.5326054E-04
  1.4765000E-02    2.5702550E-04
  1.4800000E-02    2.5700743E-04
  1.4835000E-02    2.5325373E-04
  1.4870000E-02    2.4585103E-04
  1.4905000E-02    2.3493353E-04
  1.4940000E-02    2.2070337E-04
  1.4975000E-02    2.0339852E-04
  1.5010000E-02    1.8328770E-04
  1.5045000E-02    1.6070230E-04
  1.5080000E-02    1.3600316E-04
  1.5115000E-02    1.0954872E-04
  1.5150000E-02    8.1734477E-05
  1.5185000E-02    5.2992287E-05
  1.5220000E-02    2.3747591E-05
  1.5255000E-02   -5.5733672E-06
  1.5290000E-02   -3.4540728E-05
  1.5325000E-02   -6.2746025E-05
  1.5360000E-02   -8.9791982E-05
  1.5395000E-02   -1.1528718E-04
  1.5430000E-02   -1.3887235E-04
  1.5465000E-02   -1.6022382E-04
  1.5500000E-02   -1.7905160E-04
  1.5535000E-02   -1.9511355E-04
  1.5570000E-02   -2.0820770E-04
  1.5605000E-02   -2.1816218E-04
  1.5640000E-02   -2.2485286E-04
  1.5675001E-02   -2.2821489E-04
  1.5710000E-02   -2.2823531E-04
  1.5745001E-02   -2.2494736E-04
  1.5780000E-02   -2.1842793E-04
  1.5814999E-02   -2.0879460E-04
  1.5850000E-02   -1.9620555E-04
  1.5884999E-02   -1.8086916E-04
  1.5920000E-02   -1.6304625E-04
  1.5954999E-02   -1.4302463E-04
  1.5990000E-02   -1.2110743E-04
  1.6024999E-02   -9.7631761E-05
  1.6060000E-02   -7.2959250E-05
  1.6094999E-02   -4.7453042E-05
  1.6130000E-02   -2.1494399E-05
  1.6164999E-02    4.5149309E-06
  1.6200000E-02    3.0189760E-05
  1.6235000E-02    5.5168101E-05
  1.6270000E-02    7.9089557E-05
  1.6305000E-02    1.0159690E-04
  1.6340001E-02    1.2235585E-04
  1.6375000E-02    1.4107289E-04
  1.6410001E-02    1.5749468E-04
  1.6445000E-02    1.7139205E-04
  1.6480001E-02    1.8256569E-04
  1.6515000E-02    1.9086406E-04
  1.6550001E-02    1.9618045E-04
  1.6585000E-02    1.9845281E-04
  1.6620001E-02    1.9766882E-04
  1.6655000E-02    1.9385590E-04
  1.6690001E-02    1.8708000E-04
  1.6725000E-02    1.7745618E-04
  1.6759999E-02    1.6514436E-04
  1.6795000E-02    1.5034591E-04
  1.6829999E-02    1.3330381E-04
  1.6865000E-02    1.1429075E-04
  1.6899999E-02    9.3601797E-05
  1.6935000E-02    7.1552990E-05
  1.6969999E-02    4.8475693E-05
  1.7005000E-02    2.4724270E-05
  1.7039999E-02    6.8104583E-07
  1.7075000E-02   -2.3270160E-05
  1.7109999E-02   -4.6767360E-05
  1.7145000E-02   -6.9463276E-05
  1.7180000E-02   -9.1015754E-05
  1.7215000E-02   -1.1109256E-04
  1.7250000E-02   -1.2938198E-04
  1.7285001E-02   -1.4560379E-04
  1.7320000E-02   -1.5951721E-04
  1.7355001E-02   -1.7092012E-04
  1.7390000E-02   -1.7964091E-04
  1.7425001E-02   -1.8554066E-04
  1.7460000E-02   -1.8852935E-04
  1.7495001E-02   -1.8857131E-04
  1.7530000E-02   -1.8568296E-04
  1.7565001E-02   -1.7993349E-04
  1.7600000E-02   -1.7142489E-04
  1.7635001E-02   -1.6027574E-04
  1.7670000E-02   -1.4665224E-04
  1.7704999E-02   -1.3078794E-04
  1.7740000E-02   -1.1295221E-04
  1.7774999E-02   -9.3436327E-05
  1.7810000E-02   -7.2562470E-05
  1.7844999E-02   -5.0663224E-05
  1.7880000E-02   -2.8071532E-05
  1.7914999E-02   -5.1409293E-06
  1.7950000E-02    1.7755796E-05
  1.7984999E-02    4.0242048E-05
  1.8020000E-02    6.1945786E-05
  1.8054999E-02    8.2522871E-05
  1.8090000E-02    1.0166719E-04
  1.8124999E-02    1.1908553E-04
  1.8160000E-02    1.3449385E-04
  1.8195000E-02    1.4764248E-04
  1.8230001E-02    1.5832311E-04
  1.8265000E-02    1.6637218E-04
  1.8300001E-02    1.7167903E-04
  1.8335000E-02    1.7417040E-04
  1.8370001E-02    1.7380228E-04
  1.8405000E-02    1.7058534E-04
  1.8440001E-02    1.6459104E-04
  1.8475000E-02    1.5593303E-04
  1.8510001E-02    1.4476576E-04
  1.8545000E-02    1.3128023E-04
  1.8580001E-02    1.1568983E-04
  1.8615000E-02    9.8246259E-05
  1.8650001E-02    7.9254038E-05
  1.8685000E-02    5.9043174E-05
  1.8719999E-02    3.7949034E-05
  1.8755000E-02    1.6316411E-05
  1.8789999E-02   -5.5085370E-06
  1.8825000E-02   -2.7178281E-05
  1.8859999E-02   -4.8330694E-05
  1.8895000E-02   -6.8606321E-05
  1.8929999E-02   -8.7675311E-05
  1.8965000E-02   -1.0523786E-04
  1.8999999E-02   -1.2102317E-04
  1.9035000E-02   -1.3478663E-04
  1.9069999E-02   -1.4629927E-04
  1.9105000E-02   -1.5536793E-04
  1.9140000E-02   -1.6186347E-04
  1.9175000E-02   -1.6570640E-04
  1.9210000E-02   -1.6685114E-04
  1.9245001E-02   -1.6529384E-04
  1.9280000E-02   -1.6106748E-04
  1.9315001E-02   -1.5424484E-04
  1.9350000E-02   -1.4496049E-04
  1.9385001E-02   -1.3339995E-04
  1.9420000E-02   -1.1977542E-04
  1.9455001E-02   -1.0432983E-04
  1.9490000E-02   -8.7329063E-05
  1.9525001E-02   -6.9051108E-05
  1.9560000E-02   -4.9812472E-05
  1.9595001E-02   -2.9967305E-05
  1.9630000E-02   -9.8610853E-06
  1.9664999E-02    1.0176208E-05
  1.9700000E-02    2.9812454E-05
  1.9734999E-02    4.8724458E-05
  1.9770000E-02    6.6594315E-05
  1.9804999E-02    8.3103259E-05
  1.9840000E-02    9.7972086E-05
  1.9874999E-02    1.1097681E-04
  1.9910000E-02    1.2191309E-04
  1.9944999E-02    1.3060142E-04
  1.9980000E-02    1.3691452E-04
  2.0014999E-02    1.4075699E-04
  2.0050000E-02    1.4206226E-04
  2.0085000E-02    1.4083111E-04
  2.0120000E-02    1.3712185E-04
  2.0155000E-02    1.3101260E-04
  2.0190001E-02    1.2261556E-04
  2.0225000E-02    1.1209281E-04
  2.0260001E-02    9.9636753E-05
  2.0295000E-02    8.5477528E-05
  2.0330001E-02    6.9892601E-05
  2.0365000E-02    5.3168751E-05
  2.0400001E-02    3.5591562E-05
  2.0435000E-02    1.7474302E-05
  2.0470001E-02   -8.6066325E-07
  2.0505000E-02   -1.9100464E-05
  2.0540001E-02   -3.6913476E-05
  2.0575000E-02   -5.3971973E-05
  2.0609999E-02   -6.9995411E-05
  2.0645000E-02   -8.4715328E-05
  2.0679999E-02   -9.7866745E-05
  2.0715000E-02   -1.0923998E-04
  2.0749999E-02   -1.1865664E-04
  2.0785000E-02   -1.2593647E-04
  2.0819999E-02   -1.3095990E-04
  2.0855000E-02   -1.3368159E-04
  2.0889999E-02   -1.3406902E-04
  2.0925000E-02   -1.3211864E-04
  2.0959999E-02   -1.2788923E-04
  2.0995000E-02   -1.2146444E-04
  2.1029999E-02   -1.1295518E-04
  2.1065000E-02   -1.0254350E-04
  2.1100000E-02   -9.0454269E-05
  2.1135001E-02   -7.6910277E-05
  2.1170000E-02   -6.2147607E-05
  2.1205001E-02   -4.6428886E-05
  2.1240000E-02   -3.0034505E-05
  2.1275001E-02   -1.3269593E-05
  2.1310000E-02    3.5467267E-06
  2.1345001E-02    2.0115973E-05
  2.1380000E-02    3.6156191E-05
  2.1415001E-02    5.1384031E-05
  2.1450000E-02    6.5541019E-05
  2.1485001E-02    7.8400670E-05
  2.1520000E-02    8.9734764E-05
  2.1555001E-02    9.9335608E-05
  2.1590000E-02    1.0706059E-04
  2.1624999E-02    1.1280353E-04
  2.1660000E-02    1.1647546E-04
  2.1694999E-02    1.1803779E-04
  2.1730000E-02    1.1748742E-04
  2.1764999E-02    1.1483738E-04
  2.1800000E-02    1.1016242E-04
  2.1834999E-02    1.0359476E-04
  2.1870000E-02    9.5267904E-05
  2.1904999E-02    8.5335021E-05
  2.1940000E-02    7.3996016E-05
  2.1974999E-02    6.1464583E-05
  2.2010000E-02    4.7973674E-05
  2.2045000E-02    3.3798398E-05
  2.2080000E-02    1.9210667E-05
  2.2115000E-02    4.4553631E-06
  2.2150001E-02   -1.0210534E-05
  2.2185000E-02   -2.4520992E-05
  2.2220001E-02   -3.8231494E-05
  2.2255000E-02   -5.1102092E-05
  2.2290001E-02   -6.2895502E-05
  2.2325000E-02   -7.3420299E-05
  2.2360001E-02   -8.2530809E-05
  2.2395000E-02   -9.0090158E-05
  2.2430001E-02   -9.5979405E-05
  2.2465000E-02   -1.0012023E-04
  2.2500001E-02   -1.0246356E-04
  2.2535000E-02   -1.0299427E-04
  2.2569999E-02   -1.0174817E-04
  2.2605000E-02   -9.8785858E-05
  2.2639999E-02   -9.4174306E-05
  2.2675000E-02   -8.8019347E-05
  2.2709999E-02   -8.0472557E-05
  2.2745000E-02   -7.1699396E-05
  2.2779999E-02   -6.1877639E-05
  2.2815000E-02   -5.1205134E-05
  2.2849999E-02   -3.9883016E-05
  2.2885000E-02   -2.8121165E-05
  2.2919999E-02   -1.6151726E-05
  2.2955000E-02   -4.2004672E-06
  2.2990000E-02    7.5293929E-06
  2.3025000E-02    1.8830562E-05
  2.3060000E-02    2.9495388E-05
  2.3095001E-02    3.9345472E-05
  2.3130000E-02    4.8223177E-05
  2.3165001E-02    5.5983091E-05
  2.3200000E-02    6.2512314E-05
  2.3235001E-02    6.7723093E-05
  2.3270000E-02    7.1535869E-05
  2.3305001E-02    7.3903168E-05
  2.3340000E-02    7.4819131E-05
  2.3375001E-02    7.4293574E-05
  2.3410000E-02    7.2358358E-05
  2.3445001E-02    6.9088266E-05
  2.3480000E-02    6.4579304E-05
  2.3514999E-02    5.8927501E-05
  2.3550000E-02    5.2244170E-05
  2.3584999E-02    4.4666212E-05
  2.3620000E-02    3.6350451E-05
  2.3654999E-02    2.7472246E-05
  2.3690000E-02    1.8213152E-05
  2.3724999E-02    8.7401868E-06
  2.3760000E-02   -7.8579899E-07
  2.3794999E-02   -1.0191004E-05
  2.3830000E-02   -1.9303556E-05
  2.3864999E-02   -2.7967353E-05
  2.3900000E-02   -3.6027635E-05
  2.3934999E-02   -4.3343542E-05
  2.3970000E-02   -4.9812370E-05
  2.4005000E-02   -5.5341130E-05
  2.4040001E-02   -5.9830887E-05
  2.4075000E-02   -6.3216685E-05
  2.4110001E-02   -6.5469278E-05
  2.4145000E-02   -6.6566368E-05
  2.4180001E-02   -6.6506400E-05
  2.4215000E-02   -6.5309883E-05
  2.4250001E-02   -6.3002299E-05
  2.4285000E-02   -5.9643236E-05
  2.4320001E-02   -5.5331275E-05
  2.4355000E-02   -5.0158262E-05
  2.4390001E-02   -4.4216184E-05
  2.4425000E-02   -3.7622194E-05
  2.4460001E-02   -3.0493926E-05
  2.4495000E-02   -2.2955495E-05
  2.4529999E-02   -1.5165532E-05
  2.4565000E-02   -7.2796420E-06
  2.4599999E-02    5.7880300E-07
  2.4635000E-02    8.2830156E-06
  2.4669999E-02    1.5695941E-05
  2.4705000E-02    2.2698239E-05
  2.4739999E-02    2.9176732E-05
  2.4775000E-02    3.5013411E-05
  2.4809999E-02    4.0115567E-05
  2.4845000E-02    4.4418688E-05
  2.4879999E-02    4.7856927E-05
  2.4915000E-02    5.0375580E-05
  2.4950000E-02    5.1952888E-05
  2.4985000E-02    5.2575575E-05
  2.5020000E-02    5.2237807E-05
  2.5055001E-02    5.0972980E-05
  2.5090000E-02    4.8828930E-05
  2.5125001E-02    4.5837496E-05
  2.5160000E-02    4.2051433E-05
  2.5195001E-02    3.7557242E-05
  2.5230000E-02    3.2446274E-05
  2.5265001E-02    2.6825630E-05
  2.5300000E-02    2.0816979E-05
  2.5335001E-02    1.4518935E-05
  2.5370000E-02    8.0253149E-06
  2.5405001E-02    1.4581216E-06
  2.5440000E-02   -5.0592462E-06
  2.5474999E-02   -1.1413437E-05
  2.5510000E-02   -1.7486191E-05
  2.5544999E-02   -2.3176906E-05
  2.5580000E-02   -2.8408316E-05
  2.5614999E-02   -3.3093274E-05
  2.5650000E-02   -3.7144018E-05
  2.5684999E-02   -4.0500108E-05
  2.5720000E-02   -4.3115309E-05
  2.5754999E-02   -4.4955937E-05
  2.5790000E-02   -4.6017252E-05
  2.5824999E-02   -4.6298155E-05
  2.5860000E-02   -4.5784967E-05
  2.5895000E-02   -4.4491870E-05
  2.5930000E-02   -4.2471329E-05
  2.5965000E-02   -3.9777693E-05
  2.6000001E-02   -3.6471058E-05
  2.6035000E-02   -3.2631597E-05
  2.6070001E-02   -2.8332533E-05
  2.6105000E-02   -2.3645707E-05
  2.6140001E-02   -1.8674733E-05
  2.6175000E-02   -1.3528824E-05
  2.6210001E-02   -8.2976912E-06
  2.6245000E-02   -3.0808933E-06
  2.6280001E-02    2.0162672E-06
  2.6315000E-02    6.9096764E-06
  2.6350001E-02    1.1512804E-05
  2.6385000E-02    1.5729771E-05
  2.6419999E-02    1.9490661E-05
  2.6455000E-02    2.2744922E-05
  2.6489999E-02    2.5438871E-05
  2.6525000E-02    2.7531807E-05
  2.6559999E-02    2.8996816E-05
  2.6595000E-02    2.9806435E-05
  2.6629999E-02    2.9953304E-05
  2.6665000E-02    2.9459647E-05
  2.6699999E-02    2.8352930E-05
  2.6735000E-02    2.6666823E-05
  2.6769999E-02    2.4449706E-05
  2.6805000E-02    2.1743626E-05
  2.6839999E-02    1.8593973E-05
  2.6875000E-02    1.5085788E-05
  2.6910000E-02    1.1317688E-05
  2.6945001E-02    7.3593847E-06
  2.6980000E-02    3.2778109E-06