 -4.8000002E-03    1.0000000E-24
 -4.7650002E-03    1.0000002E-24
 -4.7300002E-03    1.0000002E-24
 -4.6950001E-03    1.0000001E-24
 -4.6600001E-03    1.0000000E-24
 -4.6250001E-03    1.0000003E-24
 -4.5900000E-03    1.0000002E-24
 -4.5550000E-03    9.9999982E-25
 -4.5200000E-03    1.0000005E-24
 -4.4849999E-03    1.0000004E-24
 -4.4499999E-03    9.9999972E-25
 -4.4149999E-03    9.9999992E-25
 -4.3799998E-03    1.0000004E-24
 -4.3449998E-03    1.0000000E-24
 -4.3100002E-03    1.0000001E-24
 -4.2750002E-03    1.0000007E-24
 -4.2400002E-03    1.0000002E-24
 -4.2050001E-03    9.9999923E-25
 -4.1700001E-03    1.0000001E-24
 -4.1350001E-03    1.0000006E-24
 -4.1000000E-03    9.9999992E-25
 -4.0650000E-03    1.0000000E-24
 -4.0300000E-03    1.0000009E-24
 -3.9949999E-03    9.9999982E-25
 -3.9599999E-03    9.9999943E-25
 -3.9249999E-03    1.0000002E-24
 -3.8900001E-03    1.0000003E-24
 -3.8550000E-03    1.0000001E-24
 -3.8200000E-03    1.0000001E-24
 -3.7849999E-03    9.9999963E-25
 -3.7499999E-03    9.9999982E-25
 -3.7150001E-03    1.0000012E-24
 -3.6800001E-03    1.0000008E-24
 -3.6450000E-03    9.9999943E-25
 -3.6100000E-03    1.0000002E-24
 -3.5750000E-03    1.0000008E-24
 -3.5399999E-03    9.9999943E-25
 -3.5049999E-03    9.9999933E-25
 -3.4700001E-03    1.0000010E-24
 -3.4350001E-03    1.0000008E-24
 -3.4000000E-03    9.9999903E-25
 -3.3650000E-03    9.9999972E-25
 -3.3300000E-03    1.0000007E-24
 -3.2949999E-03    1.0000003E-24
 -3.2599999E-03    9.9999992E-25
 -3.2250001E-03    1.0000003E-24
 -3.1900001E-03    9.9999972E-25
 -3.1550000E-03    9.9999953E-25
 -3.1200000E-03    1.0000009E-24
 -3.0850000E-03    1.0000010E-24
 -3.0499999E-03    9.9999933E-25
 -3.0149999E-03    9.9999933E-25
 -2.9800001E-03    1.0000005E-24
 -2.9450001E-03    1.0000003E-24
 -2.9100000E-03    9.9999982E-25
 -2.8750000E-03    1.0000006E-24
 -2.8400000E-03    1.0000008E-24
 -2.8049999E-03    1.0000002E-24
 -2.7699999E-03    1.0000000E-24
 -2.7350001E-03    9.9999943E-25
 -2.7000001E-03    1.0000000E-24
 -2.6650000E-03    1.0000014E-24
 -2.6300000E-03    1.0000005E-24
 -2.5950000E-03    9.9999893E-25
 -2.5599999E-03    9.9999972E-25
 -2.5249999E-03    1.0000011E-24
 -2.4900001E-03    1.0000003E-24
 -2.4550001E-03    1.0000000E-24
 -2.4200000E-03    1.0000004E-24
 -2.3850000E-03    9.9999913E-25
 -2.3500000E-03    1.0000000E-24
 -2.3149999E-03    1.0000016E-24
 -2.2799999E-03    1.0000001E-24
 -2.2450001E-03    9.9999943E-25
 -2.2100001E-03    1.0000020E-24
 -2.1750000E-03    1.0000007E-24
 -2.1400000E-03    9.9999775E-25
 -2.1050000E-03    9.9999923E-25
 -2.0699999E-03    1.0000010E-24
 -2.0349999E-03    9.9999933E-25
 -2.0000001E-03    9.9999982E-25
 -1.9650001E-03    1.0000015E-24
 -1.9300000E-03    1.0000012E-24
 -1.8950000E-03    1.0000005E-24
 -1.8600000E-03    1.0000000E-24
 -1.8250000E-03    9.9999933E-25
 -1.7900000E-03    9.9999992E-25
 -1.7550000E-03    1.0000009E-24
 -1.7199999E-03    1.0000000E-24
 -1.6850000E-03    9.9999963E-25
 -1.6500000E-03    1.0000006E-24
 -1.6150000E-03    9.9999992E-25
 -1.5800000E-03    9.9999992E-25
 -1.5450000E-03    1.0000009E-24
 -1.5100000E-03    9.9999943E-25
 -1.4750001E-03    9.9999844E-25
 -1.4400000E-03    1.0000010E-24
 -1.4050000E-03    1.0000024E-24
 -1.3700000E-03    9.9999982E-25
 -1.3350000E-03    9.9999913E-25
 -1.3000000E-03    1.0000004E-24
 -1.2650000E-03    9.9999992E-25
 -1.2300001E-03    9.9999972E-25
 -1.1950000E-03    1.0000003E-24
 -1.1600000E-03    9.9999963E-25
 -1.1250000E-03    1.0000004E-24
 -1.0900000E-03    1.0000009E-24
 -1.0550000E-03    9.9999933E-25
 -1.0200000E-03    1.0000001E-24
 -9.8500005E-04    1.0000015E-24
 -9.5000002E-04    1.0000000E-24
 -9.1499998E-04    9.9999903E-25
 -8.8000001E-04    1.0000006E-24
 -8.4499997E-04    9.9999963E-25
 -8.1000000E-04    9.9999933E-25
 -7.7500002E-04    1.0000017E-24
 -7.3999999E-04    1.0000014E-24
 -7.0500001E-04    9.9999953E-25
 -6.6999998E-04    1.0000002E-24
 -6.3500000E-04    1.0000001E-24
 -6.0000003E-04    9.9999874E-25
 -5.6499999E-04    9.9999963E-25
 -5.3000002E-04    1.0000012E-24
 -4.9499999E-04    1.0000008E-24
 -4.6000001E-04    9.9999982E-25
 -4.2500001E-04    9.9999972E-25
 -3.9000000E-04    9.9999972E-25
 -3.5500000E-04    1.0000004E-24
 -3.1999999E-04    1.0000016E-24
 -2.8499999E-04    1.0000004E-24
 -2.5000001E-04    9.9999824E-25
 -2.1499999E-04    9.9999903E-25
 -1.8000000E-04    1.0000012E-24
 -1.4500000E-04    1.0000009E-24
 -1.1000000E-04    1.0000012E-24
 -7.5000004E-05    1.0000028E-24
 -3.9999999E-05    1.0000003E-24
 -4.9999999E-06    9.9999696E-25
  2.9999999E-05    9.9999923E-25
  6.5000000E-05    1.0000013E-24
  9.9999997E-05    9.9999982E-25
  1.3499999E-04    1.0000006E-24
  1.7000000E-04    1.0000010E-24
  2.0500000E-04    9.9999834E-25
  2.3999999E-04    9.9999943E-25
  2.7500000E-04    1.0000018E-24
  3.1000000E-04    9.9999923E-25
  3.4500001E-04    9.9999903E-25
  3.8000001E-04    1.0000026E-24
  4.1499999E-04    1.0000004E-24
  4.4999999E-04    9.9999775E-25
  4.8500000E-04    1.0000008E-24
  5.2000000E-04    1.0000014E-24
  5.5499998E-04    9.9999815E-25
  5.9000001E-04    1.0000008E-24
  6.2499999E-04    1.0000036E-24
  6.6000002E-04    9.9999943E-25
  6.9500000E-04    9.9999785E-25
  7.3000003E-04    1.0000013E-24
  7.6500000E-04    1.0000002E-24
  7.9999998E-04    9.9999864E-25
  8.3500001E-04    1.0000014E-24
  8.6999999E-04    1.0000008E-24
  9.0500002E-04    9.9999746E-25
  9.4000000E-04    9.9999972E-25
  9.7499997E-04    1.0000018E-24
  1.0100000E-03    9.9999874E-25
  1.0450000E-03    9.9999893E-25
  1.0800000E-03    1.0000017E-24
  1.1150000E-03    1.0000009E-24
  1.1500000E-03    9.9999992E-25
  1.1849999E-03    1.0000008E-24
  1.2200000E-03    9.9999972E-25
  1.2550000E-03    1.0000002E-24
  1.2900000E-03    1.0000023E-24
  1.3250000E-03    9.9999893E-25
  1.3600000E-03    9.9999677E-25
  1.3950000E-03    1.0000023E-24
  1.4299999E-03    1.0000031E-24
  1.4650000E-03    9.9999785E-25
  1.5000000E-03    9.9999963E-25
  1.5350000E-03    1.0000024E-24
  1.5700000E-03    9.9999765E-25
  1.6050000E-03    9.9999657E-25
  1.6400000E-03    1.0000023E-24
  1.6749999E-03    1.0000033E-24
  1.7100000E-03    9.9999982E-25
  1.7450000E-03    9.9999982E-25
  1.7800000E-03    1.0000002E-24
  1.8150000E-03    9.9999953E-25
  1.8500000E-03    1.0000006E-24
  1.8850000E-03    1.0000017E-24
  1.9200000E-03    9.9999992E-25
  1.9550000E-03    9.9999785E-25
  1.9900000E-03    9.9999874E-25
  2.0250001E-03    1.0000011E-24
  2.0600001E-03    1.0000025E-24
  2.0949999E-03    1.0000014E-24
  2.1299999E-03    9.9999913E-25
  2.1650000E-03    9.9999775E-25
  2.2000000E-03    9.9999893E-25
  2.2350000E-03    1.0000021E-24
  2.2700001E-03    1.0000035E-24
  2.3050001E-03    1.0000009E-24
  2.3399999E-03    9.9999923E-25
  2.3749999E-03    9.9999923E-25
  2.4100000E-03    9.9999834E-25
  2.4450000E-03    9.9999943E-25
  2.4800000E-03    1.0000021E-24
  2.5150001E-03    1.0000007E-24
  2.5500001E-03    9.9999864E-25
  2.5849999E-03    1.0000004E-24
  2.6199999E-03    1.0000012E-24
  2.6550000E-03    9.9999943E-25
  2.6900000E-03    9.9999923E-25
  2.7250000E-03    9.9999913E-25
  2.7600001E-03    9.9999913E-25
  2.7950001E-03    1.0000022E-24
  2.8299999E-03    1.0000033E-24
  2.8649999E-03    1.0000000E-24
  2.9000000E-03    9.9999854E-25
  2.9350000E-03    9.9999923E-25
  2.9700000E-03    9.9999824E-25
  3.0050001E-03    9.9999982E-25
  3.0400001E-03    1.0000032E-24
  3.0749999E-03    1.0000014E-24
  3.1099999E-03    9.9999795E-25
  3.1450000E-03    9.9999953E-25
  3.1800000E-03    1.0000013E-24
  3.2150000E-03    9.9999923E-25
  3.2500001E-03    9.9999963E-25
  3.2850001E-03    1.0000027E-24
  3.3199999E-03    1.0000004E-24
  3.3549999E-03    9.9999736E-25
  3.3900000E-03    1.0000004E-24
  3.4250000E-03    1.0000031E-24
  3.4600000E-03    1.0000008E-24
  3.4950001E-03    9.9999884E-25
  3.5300001E-03    9.9999953E-25
  3.5649999E-03    9.9999943E-25
  3.5999999E-03    1.0000005E-24
  3.6350000E-03    1.0000013E-24
  3.6700000E-03    9.9999893E-25
  3.7050000E-03    9.9999923E-25
  3.7400001E-03    1.0000010E-24
  3.7750001E-03    9.9999923E-25
  3.8099999E-03    9.9999972E-25
  3.8449999E-03    1.0000019E-24
  3.8800000E-03    1.0000000E-24
  3.9149998E-03    1.0000001E-24
  3.9499998E-03    1.0000025E-24
  3.9849998E-03    9.9999824E-25
  4.0199999E-03    9.9999489E-25
  4.0549999E-03    1.0000013E-24
  4.0899999E-03    1.0000045E-24
  4.1250000E-03    1.0000002E-24
  4.1600000E-03    9.9999943E-25
  4.1950000E-03    1.0000009E-24
  4.2300001E-03    9.9999992E-25
  4.2650001E-03    9.9999903E-25
  4.3000001E-03    9.9999963E-25
  4.3350002E-03    1.0000016E-24
  4.3700002E-03    1.0000020E-24
  4.4049998E-03    9.9999716E-25
  4.4399998E-03    9.9999755E-25
  4.4749998E-03    1.0000042E-24
  4.5099999E-03    1.0000031E-24
  4.5449999E-03    9.9999686E-25
  4.5799999E-03    9.9999854E-25
  4.6150000E-03    1.0000002E-24
  4.6500000E-03    9.9999844E-25
  4.6850001E-03    1.0000013E-24
  4.7200001E-03    1.0000033E-24
  4.7550001E-03    9.9999982E-25
  4.7900002E-03    9.9999824E-25
  4.8250002E-03    9.9999893E-25
  4.8600002E-03    9.9999913E-25
  4.8949998E-03    1.0000006E-24
  4.9299998E-03    1.0000014E-24
  4.9649999E-03    9.9999943E-25
  4.9999999E-03    9.9999933E-25
  5.0349999E-03    1.0000013E-24
  5.0700000E-03    1.0000009E-24
  5.1050000E-03    9.9999893E-25
  5.1400000E-03    9.9999933E-25
  5.1750001E-03    1.0000012E-24
  5.2100001E-03    9.9999953E-25
  5.2450001E-03    9.9999795E-25
  5.2800002E-03    1.0000024E-24
  5.3150002E-03    1.0000045E-24
  5.3500002E-03    9.9999972E-25
  5.3849998E-03    9.9999884E-25
  5.4199998E-03    9.9999982E-25
  5.4549999E-03    9.9999647E-25
  5.4899999E-03    9.9999943E-25
  5.5249999E-03    1.0000062E-24
  5.5600000E-03    1.0000015E-24
  5.5950000E-03    9.9999509E-25
  5.6300000E-03    9.9999893E-25
  5.6650001E-03    1.0000019E-24
  5.7000001E-03    1.0000002E-24
  5.7350001E-03    9.9999992E-25
  5.7700002E-03    9.9999903E-25
  5.8050002E-03    9.9999854E-25
  5.8400002E-03    1.0000010E-24
  5.8749998E-03    1.0000003E-24
  5.9099998E-03    1.0000000E-24
  5.9449999E-03    1.0000036E-24
  5.9799999E-03    1.0000005E-24
  6.0149999E-03    9.9999519E-25
  6.0500000E-03    9.9999893E-25
  6.0850000E-03    1.0000027E-24
  6.1200000E-03    1.0000000E-24
  6.1550001E-03    1.0000008E-24
  6.1900001E-03    1.0000024E-24
  6.2250001E-03    9.9999903E-25
  6.2600002E-03    9.9999923E-25
  6.2950002E-03    1.0000017E-24
  6.3299998E-03    1.0000004E-24
  6.3649998E-03    9.9999972E-25
  6.3999998E-03    1.0000011E-24
  6.4349999E-03    9.9999893E-25
  6.4699999E-03    9.9999854E-25
  6.5049999E-03    1.0000020E-24
  6.5400000E-03    1.0000015E-24
  6.5750000E-03    9.9999834E-25
  6.6100000E-03    9.9999913E-25
  6.6450001E-03    9.9999933E-25
  6.6800001E-03    9.9999706E-25
  6.7150001E-03    1.0000000E-24
  6.7500002E-03    1.0000055E-24
  6.7850002E-03    1.0000033E-24
  6.8199998E-03    9.9999805E-25
  6.8549998E-03    9.9999874E-25
  6.8899998E-03    9.9999903E-25
  6.9249999E-03    9.9999726E-25
  6.9599999E-03    1.0000016E-24
  6.9949999E-03    1.0000044E-24
  7.0300000E-03    9.9999903E-25
  7.0650000E-03    9.9999824E-25
  7.1000000E-03    1.0000020E-24
  7.1350001E-03    9.9999953E-25
  7.1700001E-03    9.9999844E-25
  7.2050001E-03    1.0000029E-24
  7.2400002E-03    1.0000008E-24
  7.2750002E-03    9.9999657E-25
  7.3099998E-03    1.0000008E-24
  7.3449998E-03    1.0000016E-24
  7.3799998E-03    9.9999657E-25
  7.4149999E-03    1.0000000E-24
  7.4499999E-03    1.0000043E-24
  7.4850000E-03    9.9999923E-25
  7.5200000E-03    9.9999854E-25
  7.5550000E-03    1.0000027E-24
  7.5900001E-03    9.9999815E-25
  7.6250001E-03    9.9999627E-25
  7.6600001E-03    1.0000033E-24
  7.6950002E-03    1.0000025E-24
  7.7300002E-03    9.9999588E-25
  7.7650002E-03    1.0000000E-24
  7.7999998E-03    1.0000043E-24
  7.8349998E-03    9.9999933E-25
  7.8699999E-03    9.9999933E-25
  7.9049999E-03    1.0000037E-24
  7.9399999E-03    9.9999972E-25
  7.9750000E-03    9.9999548E-25
  8.0100000E-03    1.0000002E-24
  8.0450000E-03    1.0000033E-24
  8.0800001E-03    1.0000003E-24
  8.1150001E-03    1.0000006E-24
  8.1500001E-03    1.0000015E-24
  8.1850002E-03    9.9999913E-25
  8.2200002E-03    9.9999884E-25
  8.2550002E-03    9.9999923E-25
  8.2900003E-03    9.9999755E-25
  8.3250003E-03    1.0000014E-24
  8.3600003E-03    1.0000058E-24
  8.3950004E-03    9.9999667E-25
  8.4300004E-03    9.9998819E-25
  8.4650004E-03    1.0000057E-24
  8.5000005E-03    1.0000209E-24
  8.5349996E-03    9.9999430E-25
  8.5699996E-03    9.9996669E-25
  8.6049996E-03    1.0000013E-24
  8.6399997E-03    1.0000521E-24
  8.6749997E-03    1.0000151E-24
  8.7099997E-03    9.9992439E-25
  8.7449998E-03    9.9995476E-25
  8.7799998E-03    1.0001114E-24
  8.8149998E-03    1.0001025E-24
  8.8499999E-03    9.9983801E-25
  8.8849999E-03    9.9978841E-25
  8.9199999E-03    1.0002150E-24
  8.9550000E-03    1.0003992E-24
  8.9900000E-03    9.9974995E-25
  9.0250000E-03    9.9929261E-25
  9.0600001E-03    1.0002259E-24
  9.0950001E-03    1.0012005E-24
  9.1300001E-03    9.9994963E-25
  9.1650002E-03    9.9805548E-25
  9.2000002E-03    9.9957137E-25
  9.2350002E-03    1.0030112E-24
  9.2700003E-03    1.0014837E-24
  9.3050003E-03    9.9557224E-25
  9.3400003E-03    9.9644965E-25
  9.3750004E-03    1.0061101E-24
  9.4100004E-03    1.0072888E-24
  9.4450004E-03    9.9225962E-25
  9.4799995E-03    9.8635006E-25
  9.5149996E-03    1.0085368E-24
  9.5499996E-03    1.0238884E-24
  9.5849996E-03    9.9309344E-25
  9.6199997E-03    9.6051467E-25
  9.6549997E-03    9.9993947E-25
  9.6899997E-03    1.0618915E-24
  9.7249998E-03    1.0173328E-24
  9.7599998E-03    9.0814673E-25
  9.7949998E-03    9.4718430E-25
  9.8299999E-03    1.1281330E-24
  9.8649999E-03    1.1183198E-24
  9.8999999E-03    8.3476521E-25
  9.9350000E-03    7.6967886E-25
  9.9700000E-03    1.1896773E-24
  1.0005000E-02    1.4099144E-24
  1.0040000E-02    8.2565136E-25
  1.0075000E-02    3.1906194E-25
  1.0110000E-02    1.0705283E-24
  1.0145000E-02    2.0645291E-24
  1.0180000E-02    1.2024078E-24
  1.0215000E-02   -5.6753429E-25
  1.0250000E-02    2.3129717E-25
  1.0285000E-02    3.1612563E-24
  1.0320000E-02    2.8068975E-24
  1.0355000E-02   -1.7459904E-24
  1.0390000E-02   -2.5541034E-24
  1.0425000E-02    4.0965567E-24
  1.0460000E-02    7.2943183E-24
  1.0495000E-02   -1.7849015E-24
  1.0530000E-02   -9.3152119E-24
  1.0565000E-02    2.0794297E-24
  1.0600000E-02    1.6810241E-23
  1.0635000E-02    4.1714819E-24
  1.0670000E-02   -2.1694514E-23
  1.0705000E-02   -1.0649627E-23
  1.0740000E-02    3.1295661E-23
  1.0775000E-02    2.7624697E-23
  1.0810000E-02   -3.5879199E-23
  1.0845000E-02   -4.9877674E-23
  1.0880000E-02    3.9977918E-23
  1.0915000E-02    8.8359654E-23
  1.0950000E-02   -2.9527256E-23
  1.0985000E-02   -1.3739660E-22
  1.1020000E-02    2.8765501E-24
  1.1055000E-02    2.0519041E-22
  1.1090000E-02    6.2132786E-23
  1.1125000E-02   -2.7932217E-22
  1.1160000E-02   -1.7664003E-22
  1.1195000E-02    3.5497060E-22
  1.1230000E-02    3.7213558E-22
  1.1265000E-02   -3.9766741E-22
  1.1300000E-02   -6.6572302E-22
  1.1335000E-02    3.6869791E-22
  1.1370000E-02    1.0858717E-21
  1.1405000E-02   -1.8580950E-22
  1.1440000E-02   -1.6288893E-21
  1.1475000E-02   -2.5117846E-22
  1.1510000E-02    2.2721795E-21
  1.1545000E-02    1.0948934E-21
  1.1580000E-02   -2.9146091E-21
  1.1615000E-02   -2.5122091E-21
  1.1650000E-02    3.3713889E-21
  1.1685000E-02    4.6942459E-21
  1.1720000E-02   -3.2972241E-21
  1.1755000E-02   -7.7772151E-21
  1.1790000E-02    2.1716730E-21
  1.1825000E-02    1.1791099E-20
  1.1860000E-02    7.6885676E-22
  1.1895000E-02   -1.6497308E-20
  1.1930000E-02   -6.5029842E-21
  1.1965000E-02    2.1236069E-20
  1.2000000E-02    1.6195314E-20
  1.2035000E-02   -2.4657545E-20
  1.2070000E-02   -3.0993501E-20
  1.2105000E-02    2.4484475E-20
  1.2140000E-02    5.1723917E-20
  1.2175000E-02   -1.7226445E-20
  1.2210000E-02   -7.8299172E-20
  1.2245000E-02   -1.9374026E-21
  1.2280000E-02    1.0891718E-19
  1.2315000E-02    3.9093842E-20
  1.2350000E-02   -1.3891015E-19
  1.2385000E-02   -1.0102124E-19
  1.2420000E-02    1.5942865E-19
  1.2455000E-02    1.9397926E-19
  1.2490000E-02   -1.5600690E-19
  1.2525000E-02   -3.2145164E-19
  1.2560000E-02    1.0748397E-19
  1.2595000E-02    4.8071420E-19
  1.2630000E-02    1.4274816E-20
  1.2665000E-02   -6.5796614E-19
  1.2700000E-02   -2.4289872E-19
  1.2735000E-02    8.2229011E-19
  1.2770000E-02    6.1332025E-19
  1.2805000E-02   -9.1890874E-19
  1.2840000E-02   -1.1535071E-18
  1.2875000E-02    8.6315077E-19
  1.2910000E-02    1.8710565E-18
  1.2945000E-02   -5.3719353E-19
  1.2980000E-02   -2.7337629E-18
  1.3015000E-02   -2.0703863E-19
  1.3050000E-02    3.6445090E-18
  1.3085000E-02    1.5346454E-18
  1.3120000E-02   -4.4123137E-18
  1.3155000E-02   -3.5990442E-18
  1.3190000E-02    4.7242129E-18
  1.3225000E-02    6.4929472E-18
  1.3260000E-02   -4.1258975E-18
  1.3295000E-02   -1.0175359E-17
  1.3330000E-02    2.0233092E-18
  1.3365000E-02    1.4374685E-17
  1.3400000E-02    2.2787641E-18
  1.3435000E-02   -1.8474053E-17
  1.3470000E-02   -9.4820417E-18
  1.3505000E-02    2.1394620E-17
  1.3540000E-02    2.0124881E-17
  1.3575000E-02   -2.1504964E-17
  1.3610000E-02   -3.4322900E-17
  1.3645000E-02    1.6599468E-17
  1.3680000E-02    5.1417888E-17
  1.3715000E-02   -4.0030355E-18
  1.3750000E-02   -6.9554534E-17
  1.3785000E-02   -1.9130022E-17
  1.3820000E-02    8.5237184E-17
  1.3855000E-02    5.5254490E-17
  1.3890000E-02   -9.2961972E-17
  1.3925000E-02   -1.0555767E-16
  1.3960000E-02    8.5069517E-17
  1.3995000E-02    1.6875635E-16
  1.4030000E-02   -5.2012349E-17
  1.4065000E-02   -2.3962919E-16
  1.4100000E-02   -1.6734782E-17
  1.4135000E-02    3.0745422E-16
  1.4170000E-02    1.3089192E-16
  1.4205000E-02   -3.5466270E-16
  1.4240000E-02   -2.9654377E-16
  1.4275000E-02    3.5618180E-16
  1.4310000E-02    5.1222184E-16
  1.4345000E-02   -2.8009085E-16
  1.4380000E-02   -7.6409746E-16
  1.4415000E-02    9.0321128E-17
  1.4450000E-02    1.0208257E-15
  1.4485000E-02    2.4788247E-16
  1.4520000E-02   -1.2290225E-15
  1.4555000E-02   -7.5919468E-16
  1.4590000E-02    1.3108504E-15
  1.4625000E-02    1.4460444E-15
  1.4660000E-02   -1.1656343E-15
  1.4695000E-02   -2.2736791E-15
  1.4730000E-02    6.7771323E-16
  1.4765000E-02    3.1541544E-15
  1.4800000E-02    2.6734178E-16
  1.4835000E-02   -3.9322442E-15
  1.4870000E-02   -1.7566264E-15
  1.4905000E-02    4.3776873E-15
  1.4940000E-02    3.8137730E-15
  1.4975000E-02   -4.1894203E-15
  1.5010000E-02   -6.3548389E-15
  1.5045000E-02    3.0181156E-15
  1.5080000E-02    9.1413710E-15
  1.5115000E-02   -5.1294102E-16
  1.5150000E-02   -1.1739492E-14
  1.5185000E-02   -3.6035797E-15
  1.5220000E-02    1.3497691E-14
  1.5255000E-02    9.4328037E-15
  1.5290000E-02   -1.3559139E-14
  1.5325000E-02   -1.6775975E-14
  1.5360000E-02    1.0925726E-14
  1.5395000E-02    2.5004138E-14
  1.5430000E-02   -4.5890415E-15
  1.5465000E-02   -3.2947227E-14
  1.5500000E-02   -6.2625838E-15
  1.5535000E-02    3.8837169E-14
  1.5570000E-02    2.1964242E-14
  1.5605000E-02   -4.0347279E-14
  1.5640000E-02   -4.2042389E-14
  1.5675001E-02    3.4771898E-14
  1.5710000E-02    6.4874226E-14
  1.5745001E-02   -1.9383100E-14
  1.5780000E-02   -8.7407308E-14
  1.5814999E-02   -8.0181951E-15
  1.5850000E-02    1.0503131E-13
  1.5884999E-02    4.8372253E-14
  1.5920000E-02   -1.1170885E-13
  1.5954999E-02   -1.0051478E-13
  1.5990000E-02    1.0047100E-13
  1.6024999E-02    1.6033526E-13
  1.6060000E-02   -6.4358485E-14
  1.6094999E-02   -2.2011981E-13
  1.6130000E-02   -2.1668998E-15
  1.6164999E-02    2.6830857E-13
  1.6200000E-02    1.0140259E-13
  1.6235000E-02   -2.8992371E-13
  1.6270000E-02   -2.3035976E-13
  1.6305000E-02    2.6790351E-13
  1.6340001E-02    3.7880932E-13
  1.6375000E-02   -1.8550068E-13
  1.6410001E-02   -5.2786811E-13
  1.6445000E-02    2.9751511E-14
  1.6480001E-02    6.4967340E-13
  1.6515000E-02    2.0420150E-13
  1.6550001E-02   -7.0871672E-13
  1.6585000E-02   -5.0843092E-13
  1.6620001E-02    6.6532207E-13
  1.6655000E-02    8.5798480E-13
  1.6690001E-02   -4.8152563E-13
  1.6725000E-02   -1.2081546E-12
  1.6759999E-02    1.2922242E-13
  1.6795000E-02    1.4944686E-12
  1.6829999E-02    4.0008161E-13
  1.6865000E-02   -1.6366014E-12
  1.6899999E-02   -1.0851987E-12
  1.6935000E-02    1.5470848E-12
  1.6969999E-02    1.8667626E-12
  1.7005000E-02   -1.1450989E-12
  1.7039999E-02   -2.6426808E-12
  1.7075000E-02    3.7467010E-13
  1.7109999E-02    3.2700834E-12
  1.7145000E-02    7.7454688E-13
  1.7180000E-02   -3.5760147E-12
  1.7215000E-02   -2.2470218E-12
  1.7250000E-02    3.3782348E-12
  1.7285001E-02    3.9058904E-12
  1.7320000E-02   -2.5159805E-12
  1.7355001E-02   -5.5272011E-12
  1.7390000E-02    8.8843966E-13
  1.7425001E-02    6.8087615E-12
  1.7460000E-02    1.5037084E-12
  1.7495001E-02   -7.3973371E-12
  1.7530000E-02   -4.5207445E-12
  1.7565001E-02    6.9356725E-12
  1.7600000E-02    7.8591864E-12
  1.7635001E-02   -5.1273612E-12
  1.7670000E-02   -1.1049361E-11
  1.7704999E-02    1.8132776E-12
  1.7740000E-02    1.3483719E-11
  1.7774999E-02    2.9512653E-12
  1.7810000E-02   -1.4481046E-11
  1.7844999E-02   -8.8334279E-12
  1.7880000E-02    1.3386454E-11
  1.7914999E-02    1.5190708E-11
  1.7950000E-02   -9.6997983E-12
  1.7984999E-02   -2.1086428E-11
  1.8020000E-02    3.2171097E-12
  1.8054999E-02    2.5365326E-11
  1.8090000E-02    5.8379668E-12
  1.8124999E-02   -2.6793972E-11
  1.8160000E-02   -1.6721204E-11
  1.8195000E-02    2.4259404E-11
  1.8230001E-02    2.8142952E-11
  1.8265000E-02   -1.7005933E-11
  1.8300001E-02   -3.8336945E-11
  1.8335000E-02    4.8763116E-12
  1.8370001E-02    4.5237498E-11
  1.8405000E-02    1.1487144E-11
  1.8440001E-02   -4.6762923E-11
  1.8475000E-02   -3.0531518E-11
  1.8510001E-02    4.1181773E-11
  1.8545000E-02    4.9818288E-11
  1.8580001E-02   -2.7515613E-11
  1.8615000E-02   -6.6217393E-11
  1.8650001E-02    5.9122308E-12
  1.8685000E-02    7.6279115E-11
  1.8719999E-02    2.2088741E-11
  1.8755000E-02   -7.6760300E-11
  1.8789999E-02   -5.3475543E-11
  1.8825000E-02    6.5245809E-11
  1.8859999E-02    8.3931355E-11
  1.8895000E-02   -4.0772614E-11
  1.8929999E-02   -1.0827809E-10
  1.8965000E-02    4.3402478E-12
  1.8999999E-02    1.2118055E-10
  1.9035000E-02    4.0814057E-11
  1.9069999E-02   -1.1804037E-10
  1.9105000E-02   -8.9281374E-11
  1.9140000E-02    9.5956638E-11
  1.9175000E-02    1.3395200E-10
  1.9210000E-02   -5.4589375E-11
  1.9245001E-02   -1.6689215E-10
  1.9280000E-02   -3.2555868E-12
  1.9315001E-02    1.8054923E-10
  1.9350000E-02    7.1485422E-11
  1.9385001E-02   -1.6913050E-10
  1.9420000E-02   -1.4114046E-10
  1.9455001E-02    1.2993367E-10
  1.9490000E-02    2.0140586E-10
  1.9525001E-02   -6.4374714E-11
  1.9560000E-02   -2.4114100E-10
  1.9595001E-02   -2.1533882E-11
  1.9630000E-02    2.5073849E-10
  1.9664999E-02    1.1744108E-10
  1.9700000E-02   -2.2402788E-10
  1.9734999E-02   -2.0973312E-10
  1.9770000E-02    1.5987967E-10
  1.9804999E-02    2.8336516E-10
  1.9840000E-02   -6.3163641E-11
  1.9874999E-02   -3.2423197E-10
  1.9910000E-02   -5.5217751E-11
  1.9944999E-02    3.2172418E-10
  1.9980000E-02    1.7936937E-10
  2.0014999E-02   -2.7102320E-10
  2.0050000E-02   -2.9048169E-10
  2.0085000E-02    1.7467208E-10
  2.0120000E-02    3.6970804E-10
  2.0155000E-02   -4.3029341E-11
  2.0190001E-02   -4.0141304E-10
  2.0225000E-02   -1.0662615E-10
  2.0260001E-02    3.7623424E-10
  2.0295000E-02    2.5234403E-10
  2.0330001E-02   -2.9336170E-10
  2.0365000E-02   -3.7084605E-10
  2.0400001E-02    1.6151343E-10
  2.0435000E-02    4.4146278E-10
  2.0470001E-02    1.7227486E-12
  2.0505000E-02   -4.4998522E-10
  2.0540001E-02   -1.7223198E-10
  2.0575000E-02    3.9169179E-10
  2.0609999E-02    3.2312575E-10
  2.0645000E-02   -2.7289243E-10
  2.0679999E-02   -4.2932663E-10
  2.0715000E-02    1.1055411E-10
  2.0749999E-02    4.7217613E-10
  2.0785000E-02    7.0090017E-11
  2.0819999E-02   -4.4318166E-10
  2.0855000E-02   -2.3965305E-10
  2.0889999E-02    3.4610159E-10
  2.0925000E-02    3.6976364E-10
  2.0959999E-02   -1.9683409E-10
  2.0995000E-02   -4.3835513E-10
  2.1029999E-02    2.0975043E-11
  2.1065000E-02    4.3403942E-10
  2.1100000E-02    1.5063187E-10
  2.1135001E-02   -3.5863576E-10
  2.1170000E-02   -2.8759006E-10
  2.1205001E-02    2.2723247E-10
  2.1240000E-02    3.6582129E-10
  2.1275001E-02   -6.5628114E-11
  2.1310000E-02   -3.7243489E-10
  2.1345001E-02   -9.4472499E-11
  2.1380000E-02    3.0855002E-10
  2.1415001E-02    2.2164100E-10
  2.1450000E-02   -1.8939109E-10
  2.1485001E-02   -2.9108280E-10
  2.1520000E-02    4.1506926E-11
  2.1555001E-02    2.8986441E-10
  2.1590000E-02    1.0243859E-10
  2.1624999E-02   -2.1987547E-10
  2.1660000E-02   -2.1032664E-10
  2.1694999E-02    9.7812584E-11
  2.1730000E-02    2.5736144E-10
  2.1764999E-02    4.7930552E-11
  2.1800000E-02   -2.3155676E-10
  2.1834999E-02   -1.8293948E-10
  2.1870000E-02    1.3672966E-10
  2.1904999E-02    2.7392810E-10
  2.1940000E-02    7.7176824E-12
  2.1974999E-02   -2.9592404E-10
  2.2010000E-02   -1.7030208E-10
  2.2045000E-02    2.3798805E-10
  2.2080000E-02    3.1363720E-10
  2.2115000E-02   -1.0623131E-10
  2.2150001E-02   -4.0210585E-10
  2.2185000E-02   -7.6597499E-11
  2.2220001E-02    4.0949549E-10
  2.2255000E-02    2.7499170E-10
  2.2290001E-02   -3.2503497E-10
  2.2325000E-02   -4.4737336E-10
  2.2360001E-02    1.5654021E-10
  2.2395000E-02    5.5433796E-10
  2.2430001E-02    7.0073267E-11
  2.2465000E-02   -5.6686206E-10
  2.2500001E-02   -3.1496511E-10
  2.2535000E-02    4.7283272E-10
  2.2569999E-02    5.3155624E-10
  2.2605000E-02   -2.8053321E-10
  2.2639999E-02   -6.7544709E-10
  2.2675000E-02    1.8246403E-11
  2.2709999E-02    7.1339118E-10
  2.2745000E-02    2.7013847E-10
  2.2779999E-02   -6.3056182E-10
  2.2815000E-02   -5.3287941E-10
  2.2849999E-02    4.3457785E-10
  2.2885000E-02    7.2015366E-10
  2.2919999E-02   -1.5529002E-10
  2.2955000E-02   -7.9404205E-10
  2.2990000E-02   -1.5990965E-10
  2.3025000E-02    7.3672307E-10
  2.3060000E-02    4.5462561E-10
  2.3095001E-02   -5.5508304E-10
  2.3130000E-02   -6.7437533E-10
  2.3165001E-02    2.8050923E-10
  2.3200000E-02    7.7778223E-10
  2.3235001E-02    3.6468058E-11
  2.3270000E-02   -7.4568002E-10
  2.3305001E-02   -3.3594230E-10
  2.3340000E-02    5.8596500E-10
  2.3375001E-02    5.6100186E-10
  2.3410000E-02   -3.3277844E-10
  2.3445001E-02   -6.7011874E-10
  2.3480000E-02    3.9752611E-11
  2.3514999E-02    6.4669059E-10
  2.3550000E-02    2.3155747E-10
  2.3584999E-02   -5.0325644E-10
  2.3620000E-02   -4.2564580E-10
  2.3654999E-02    2.7897148E-10
  2.3690000E-02    5.0617566E-10
  2.3724999E-02   -3.0482027E-11
  2.3760000E-02   -4.6488607E-10
  2.3794999E-02   -1.8192800E-10
  2.3830000E-02    3.2369918E-10
  2.3864999E-02    3.0960873E-10
  2.3900000E-02   -1.2903954E-10
  2.3934999E-02   -3.2824310E-10
  2.3970000E-02   -6.0578015E-11
  2.4005000E-02    2.4434560E-10
  2.4040001E-02    1.9065564E-10
  2.4075000E-02   -9.3385834E-11
  2.4110001E-02   -2.2617785E-10
  2.4145000E-02   -7.0401157E-11
  2.4180001E-02    1.6194264E-10
  2.4215000E-02    1.9002280E-10
  2.4250001E-02   -2.4422691E-11
  2.4285000E-02   -2.2312331E-10
  2.4320001E-02   -1.3588115E-10
  2.4355000E-02    1.5557310E-10
  2.4390001E-02    2.5979888E-10
  2.4425000E-02   -6.8518008E-12
  2.4460001E-02   -2.9824013E-10
  2.4495000E-02   -1.7493267E-10
  2.4529999E-02    2.2862716E-10
  2.4565000E-02    3.2740791E-10
  2.4599999E-02   -6.3654484E-11
  2.4635000E-02   -3.9363804E-10
  2.4669999E-02   -1.5088267E-10
  2.4705000E-02    3.4111361E-10
  2.4739999E-02    3.4910017E-10
  2.4775000E-02   -1.7384490E-10
  2.4809999E-02   -4.6524962E-10
  2.4845000E-02   -6.6745040E-11
  2.4879999E-02    4.5495252E-10
  2.4915000E-02    3.1298553E-10
  2.4950000E-02   -3.1057468E-10
  2.4985000E-02   -4.9112059E-10
  2.5020000E-02    6.5455405E-11
  2.5055001E-02    5.4427240E-10
  2.5090000E-02    2.1483722E-10
  2.5125001E-02   -4.5081755E-10
  2.5160000E-02   -4.5181306E-10
  2.5195001E-02    2.3204988E-10
  2.5230000E-02    5.7791971E-10
  2.5265001E-02    5.3593192E-11
  2.5300000E-02   -5.5731753E-10
  2.5335001E-02   -3.2808681E-10
  2.5370000E-02    3.9680401E-10
  2.5405001E-02    5.1758714E-10
  2.5440000E-02   -1.4329646E-10
  2.5474999E-02   -5.7472682E-10
  2.5510000E-02   -1.3129399E-10
  2.5544999E-02    4.9221216E-10
  2.5580000E-02    3.5277850E-10
  2.5614999E-02   -3.0338979E-10
  2.5650000E-02   -4.6746451E-10
  2.5684999E-02    6.9817846E-11
  2.5720000E-02    4.5744228E-10
  2.5754999E-02    1.3963622E-10
  2.5790000E-02   -3.4363509E-10
  2.5824999E-02   -2.7101946E-10
  2.5860000E-02    1.7599938E-10
  2.5895000E-02    3.0138603E-10
  2.5930000E-02   -1.4535510E-11
  2.5965000E-02   -2.4329577E-10
  2.6000001E-02   -9.1747027E-11
  2.6035000E-02    1.3685554E-10
  2.6070001E-02    1.2061088E-10
  2.6105000E-02   -3.2512038E-11
  2.6140001E-02   -8.1574573E-11
  2.6175000E-02   -2.8819695E-11
  2.6210001E-02    8.2822924E-12
  2.6245000E-02    2.9874572E-11
  2.6280001E-02    5.7160394E-11
  2.6315000E-02    1.8581480E-11
  2.6350001E-02   -8.2608628E-11
  2.6385000E-02   -8.5559858E-11
  2.6419999E-02    5.8753863E-11
  2.6455000E-02    1.3627822E-10
  2.6489999E-02    8.0768617E-14
  2.6525000E-02   -1.4728403E-10
  2.6559999E-02   -6.3376929E-11
  2.6595000E-02    1.1865128E-10
  2.6629999E-02    1.0288109E-10
  2.6665000E-02   -7.0183720E-11
  2.6699999E-02   -1.0493838E-10
  2.6735000E-02    3.2454862E-11
  2.6769999E-02    7.9918204E-11
  2.6805000E-02   -2.8169359E-11
  2.6839999E-02   -5.6584664E-11
  2.6875000E-02    5.7295470E-11
  2.6910000E-02    6.2815926E-11
  2.6945001E-02   -1.0326287E-10
  2.6980000E-02   -1.2555151E-10