 -4.8000002E-03    1.0000000E-24
 -4.7650002E-03    1.0000002E-24
 -4.7300002E-03    1.0000002E-24
 -4.6950001E-03    1.0000001E-24
 -4.6600001E-03    1.0000000E-24
 -4.6250001E-03    1.0000003E-24
 -4.5900000E-03    1.0000002E-24
 -4.5550000E-03    9.9999992E-25
 -4.5200000E-03    1.0000004E-24
 -4.4849999E-03    1.0000002E-24
 -4.4499999E-03    9.9999992E-25
 -4.4149999E-03    1.0000001E-24
 -4.3799998E-03    9.9999992E-25
 -4.3449998E-03    1.0000002E-24
 -4.3100002E-03    1.0000011E-24
 -4.2750002E-03    1.0000004E-24
 -4.2400002E-03    9.9999923E-25
 -4.2050001E-03    1.0000002E-24
 -4.1700001E-03    1.0000005E-24
 -4.1350001E-03    9.9999963E-25
 -4.1000000E-03    1.0000001E-24
 -4.0650000E-03    1.0000002E-24
 -4.0300000E-03    9.9999953E-25
 -3.9949999E-03    1.0000004E-24
 -3.9599999E-03    1.0000003E-24
 -3.9249999E-03    9.9999913E-25
 -3.8900001E-03    1.0000002E-24
 -3.8550000E-03    1.0000008E-24
 -3.8200000E-03    9.9999992E-25
 -3.7849999E-03    1.0000005E-24
 -3.7499999E-03    1.0000013E-24
 -3.7150001E-03    9.9999943E-25
 -3.6800001E-03    9.9999923E-25
 -3.6450000E-03    1.0000012E-24
 -3.6100000E-03    1.0000004E-24
 -3.5750000E-03    9.9999933E-25
 -3.5399999E-03    1.0000008E-24
 -3.5049999E-03    1.0000002E-24
 -3.4700001E-03    9.9999874E-25
 -3.4350001E-03    1.0000007E-24
 -3.4000000E-03    1.0000008E-24
 -3.3650000E-03    9.9999903E-25
 -3.3300000E-03    1.0000003E-24
 -3.2949999E-03    1.0000010E-24
 -3.2599999E-03    9.9999923E-25
 -3.2250001E-03    9.9999963E-25
 -3.1900001E-03    1.0000011E-24
 -3.1550000E-03    1.0000000E-24
 -3.1200000E-03    9.9999953E-25
 -3.0850000E-03    1.0000014E-24
 -3.0499999E-03    1.0000013E-24
 -3.0149999E-03    9.9999943E-25
 -2.9800001E-03    9.9999933E-25
 -2.9450001E-03    1.0000003E-24
 -2.9100000E-03    1.0000000E-24
 -2.8750000E-03    9.9999933E-25
 -2.8400000E-03    1.0000000E-24
 -2.8049999E-03    1.0000015E-24
 -2.7699999E-03    1.0000008E-24
 -2.7350001E-03    9.9999903E-25
 -2.7000001E-03    1.0000000E-24
 -2.6650000E-03    1.0000012E-24
 -2.6300000E-03    9.9999992E-25
 -2.5950000E-03    9.9999903E-25
 -2.5599999E-03    1.0000008E-24
 -2.5249999E-03    1.0000005E-24
 -2.4900001E-03    9.9999933E-25
 -2.4550001E-03    1.0000004E-24
 -2.4200000E-03    1.0000007E-24
 -2.3850000E-03    9.9999953E-25
 -2.3500000E-03    1.0000001E-24
 -2.3149999E-03    1.0000003E-24
 -2.2799999E-03    9.9999913E-25
 -2.2450001E-03    1.0000001E-24
 -2.2100001E-03    1.0000012E-24
 -2.1750000E-03    1.0000000E-24
 -2.1400000E-03    9.9999963E-25
 -2.1050000E-03    1.0000006E-24
 -2.0699999E-03    1.0000002E-24
 -2.0349999E-03    9.9999972E-25
 -2.0000001E-03    1.0000002E-24
 -1.9650001E-03    1.0000009E-24
 -1.9300000E-03    1.0000005E-24
 -1.8950000E-03    9.9999963E-25
 -1.8600000E-03    9.9999972E-25
 -1.8250000E-03    1.0000008E-24
 -1.7900000E-03    1.0000005E-24
 -1.7550000E-03    9.9999923E-25
 -1.7199999E-03    9.9999972E-25
 -1.6850000E-03    1.0000005E-24
 -1.6500000E-03    9.9999913E-25
 -1.6150000E-03    9.9999953E-25
 -1.5800000E-03    1.0000012E-24
 -1.5450000E-03    1.0000009E-24
 -1.5100000E-03    9.9999972E-25
 -1.4750001E-03    1.0000004E-24
 -1.4400000E-03    9.9999972E-25
 -1.4050000E-03    9.9999884E-25
 -1.3700000E-03    1.0000012E-24
 -1.3350000E-03    1.0000015E-24
 -1.3000000E-03    9.9999913E-25
 -1.2650000E-03    9.9999923E-25
 -1.2300001E-03    1.0000005E-24
 -1.1950000E-03    1.0000001E-24
 -1.1600000E-03    9.9999933E-25
 -1.1250000E-03    1.0000003E-24
 -1.0900000E-03    1.0000018E-24
 -1.0550000E-03    1.0000006E-24
 -1.0200000E-03    9.9999824E-25
 -9.8500005E-04    1.0000000E-24
 -9.5000002E-04    1.0000008E-24
 -9.1499998E-04    9.9999815E-25
 -8.8000001E-04    9.9999972E-25
 -8.4499997E-04    1.0000023E-24
 -8.1000000E-04    9.9999943E-25
 -7.7500002E-04    9.9999992E-25
 -7.3999999E-04    1.0000024E-24
 -7.0500001E-04    9.9999884E-25
 -6.6999998E-04    9.9999815E-25
 -6.3500000E-04    1.0000022E-24
 -6.0000003E-04    1.0000005E-24
 -5.6499999E-04    9.9999775E-25
 -5.3000002E-04    1.0000006E-24
 -4.9499999E-04    1.0000014E-24
 -4.6000001E-04    9.9999972E-25
 -4.2500001E-04    1.0000008E-24
 -3.9000000E-04    1.0000013E-24
 -3.5500000E-04    1.0000002E-24
 -3.1999999E-04    9.9999913E-25
 -2.8499999E-04    9.9999815E-25
 -2.5000001E-04    9.9999992E-25
 -2.1499999E-04    1.0000024E-24
 -1.8000000E-04    9.9999953E-25
 -1.4500000E-04    9.9999864E-25
 -1.1000000E-04    1.0000021E-24
 -7.5000004E-05    1.0000001E-24
 -3.9999999E-05    9.9999726E-25
 -4.9999999E-06    1.0000015E-24
  2.9999999E-05    1.0000024E-24
  6.5000000E-05    9.9999805E-25
  9.9999997E-05    1.0000002E-24
  1.3499999E-04    1.0000029E-24
  1.7000000E-04    9.9999824E-25
  2.0500000E-04    9.9999884E-25
  2.3999999E-04    1.0000025E-24
  2.7500000E-04    9.9999755E-25
  3.1000000E-04    9.9999677E-25
  3.4500001E-04    1.0000036E-24
  3.8000001E-04    1.0000017E-24
  4.1499999E-04    9.9999815E-25
  4.4999999E-04    1.0000023E-24
  4.8500000E-04    1.0000022E-24
  5.2000000E-04    9.9999706E-25
  5.5499998E-04    9.9999805E-25
  5.9000001E-04    1.0000005E-24
  6.2499999E-04    1.0000006E-24
  6.6000002E-04    1.0000013E-24
  6.9500000E-04    1.0000018E-24
  7.3000003E-04    1.0000009E-24
  7.6500000E-04    1.0000001E-24
  7.9999998E-04    9.9999834E-25
  8.3500001E-04    9.9999854E-25
  8.6999999E-04    1.0000014E-24
  9.0500002E-04    1.0000008E-24
  9.4000000E-04    9.9999933E-25
  9.7499997E-04    1.0000007E-24
  1.0100000E-03    1.0000010E-24
  1.0450000E-03    9.9999943E-25
  1.0800000E-03    1.0000001E-24
  1.1150000E-03    9.9999972E-25
  1.1500000E-03    9.9999923E-25
  1.1849999E-03    1.0000016E-24
  1.2200000E-03    1.0000013E-24
  1.2550000E-03    9.9999854E-25
  1.2900000E-03    1.0000004E-24
  1.3250000E-03    1.0000013E-24
  1.3600000E-03    9.9999805E-25
  1.3950000E-03    9.9999903E-25
  1.4299999E-03    1.0000016E-24
  1.4650000E-03    9.9999963E-25
  1.5000000E-03    9.9999943E-25
  1.5350000E-03    1.0000017E-24
  1.5700000E-03    9.9999982E-25
  1.6050000E-03    1.0000002E-24
  1.6400000E-03    1.0000026E-24
  1.6749999E-03    9.9999923E-25
  1.7100000E-03    9.9999716E-25
  1.7450000E-03    1.0000011E-24
  1.7800000E-03    1.0000001E-24
  1.8150000E-03    9.9999765E-25
  1.8500000E-03    1.0000024E-24
  1.8850000E-03    1.0000030E-24
  1.9200000E-03    9.9999815E-25
  1.9550000E-03    9.9999903E-25
  1.9900000E-03    1.0000014E-24
  2.0250001E-03    1.0000005E-24
  2.0600001E-03    1.0000001E-24
  2.0949999E-03    9.9999972E-25
  2.1299999E-03    1.0000001E-24
  2.1650000E-03    1.0000014E-24
  2.2000000E-03    9.9999923E-25
  2.2350000E-03    9.9999824E-25
  2.2700001E-03    1.0000024E-24
  2.3050001E-03    9.9999953E-25
  2.3399999E-03    9.9999588E-25
  2.3749999E-03    1.0000028E-24
  2.4100000E-03    1.0000043E-24
  2.4450000E-03    9.9999706E-25
  2.4800000E-03    9.9999963E-25
  2.5150001E-03    1.0000033E-24
  2.5500001E-03    9.9999677E-25
  2.5849999E-03    9.9999893E-25
  2.6199999E-03    1.0000048E-24
  2.6550000E-03    9.9999913E-25
  2.6900000E-03    9.9999706E-25
  2.7250000E-03    1.0000024E-24
  2.7600001E-03    1.0000002E-24
  2.7950001E-03    9.9999864E-25
  2.8299999E-03    1.0000036E-24
  2.8649999E-03    1.0000013E-24
  2.9000000E-03    9.9999686E-25
  2.9350000E-03    9.9999953E-25
  2.9700000E-03    1.0000017E-24
  3.0050001E-03    1.0000006E-24
  3.0400001E-03    1.0000009E-24
  3.0749999E-03    1.0000001E-24
  3.1099999E-03    9.9999923E-25
  3.1450000E-03    9.9999874E-25
  3.1800000E-03    9.9999874E-25
  3.2150000E-03    1.0000030E-24
  3.2500001E-03    1.0000024E-24
  3.2850001E-03    9.9999657E-25
  3.3199999E-03    9.9999943E-25
  3.3549999E-03    1.0000025E-24
  3.3900000E-03    9.9999765E-25
  3.4250000E-03    9.9999972E-25
  3.4600000E-03    1.0000035E-24
  3.4950001E-03    9.9999795E-25
  3.5300001E-03    9.9999982E-25
  3.5649999E-03    1.0000055E-24
  3.5999999E-03    9.9999844E-25
  3.6350000E-03    9.9999617E-25
  3.6700000E-03    1.0000024E-24
  3.7050000E-03    9.9999844E-25
  3.7400001E-03    9.9999627E-25
  3.7750001E-03    1.0000048E-24
  3.8099999E-03    1.0000030E-24
  3.8449999E-03    9.9999775E-25
  3.8800000E-03    1.0000014E-24
  3.9149998E-03    9.9999992E-25
  3.9499998E-03    9.9999627E-25
  3.9849998E-03    1.0000019E-24
  4.0199999E-03    1.0000028E-24
  4.0549999E-03    9.9999775E-25
  4.0899999E-03    1.0000006E-24
  4.1250000E-03    1.0000017E-24
  4.1600000E-03    9.9999874E-25
  4.1950000E-03    1.0000015E-24
  4.2300001E-03    1.0000008E-24
  4.2650001E-03    9.9999608E-25
  4.3000001E-03    1.0000017E-24
  4.3350002E-03    1.0000041E-24
  4.3700002E-03    9.9999677E-25
  4.4049998E-03    9.9999844E-25
  4.4399998E-03    1.0000030E-24
  4.4749998E-03    9.9999775E-25
  4.5099999E-03    9.9999844E-25
  4.5449999E-03    1.0000036E-24
  4.5799999E-03    1.0000003E-24
  4.6150000E-03    9.9999884E-25
  4.6500000E-03    1.0000015E-24
  4.6850001E-03    9.9999864E-25
  4.7200001E-03    9.9999982E-25
  4.7550001E-03    1.0000036E-24
  4.7900002E-03    9.9999795E-25
  4.8250002E-03    9.9999765E-25
  4.8600002E-03    1.0000044E-24
  4.8949998E-03    9.9999982E-25
  4.9299998E-03    9.9999588E-25
  4.9649999E-03    1.0000028E-24
  4.9999999E-03    1.0000032E-24
  5.0349999E-03    9.9999824E-25
  5.0700000E-03    1.0000010E-24
  5.1050000E-03    1.0000003E-24
  5.1400000E-03    9.9999529E-25
  5.1750001E-03    1.0000005E-24
  5.2100001E-03    1.0000031E-24
  5.2450001E-03    9.9999785E-25
  5.2800002E-03    1.0000003E-24
  5.3150002E-03    1.0000039E-24
  5.3500002E-03    9.9999943E-25
  5.3849998E-03    9.9999755E-25
  5.4199998E-03    1.0000010E-24
  5.4549999E-03    1.0000000E-24
  5.4899999E-03    9.9999834E-25
  5.5249999E-03    1.0000008E-24
  5.5600000E-03    1.0000012E-24
  5.5950000E-03    9.9999982E-25
  5.6300000E-03    1.0000013E-24
  5.6650001E-03    1.0000014E-24
  5.7000001E-03    9.9999933E-25
  5.7350001E-03    9.9999913E-25
  5.7700002E-03    9.9999943E-25
  5.8050002E-03    9.9999992E-25
  5.8400002E-03    1.0000020E-24
  5.8749998E-03    1.0000011E-24
  5.9099998E-03    9.9999815E-25
  5.9449999E-03    1.0000004E-24
  5.9799999E-03    1.0000020E-24
  6.0149999E-03    9.9999805E-25
  6.0500000E-03    9.9999844E-25
  6.0850000E-03    1.0000020E-24
  6.1200000E-03    9.9999963E-25
  6.1550001E-03    9.9999874E-25
  6.1900001E-03    1.0000037E-24
  6.2250001E-03    1.0000016E-24
  6.2600002E-03    9.9999647E-25
  6.2950002E-03    9.9999903E-25
  6.3299998E-03    1.0000019E-24
  6.3649998E-03    9.9999992E-25
  6.3999998E-03    1.0000005E-24
  6.4349999E-03    1.0000004E-24
  6.4699999E-03    9.9999765E-25
  6.5049999E-03    1.0000000E-24
  6.5400000E-03    1.0000037E-24
  6.5750000E-03    1.0000011E-24
  6.6100000E-03    9.9999864E-25
  6.6450001E-03    9.9999923E-25
  6.6800001E-03    9.9999982E-25
  6.7150001E-03    9.9999963E-25
  6.7500002E-03    9.9999943E-25
  6.7850002E-03    1.0000004E-24
  6.8199998E-03    1.0000020E-24
  6.8549998E-03    1.0000010E-24
  6.8899998E-03    9.9999893E-25
  6.9249999E-03    1.0000000E-24
  6.9599999E-03    1.0000008E-24
  6.9949999E-03    9.9999854E-25
  7.0300000E-03    9.9999943E-25
  7.0650000E-03    1.0000032E-24
  7.1000000E-03    1.0000006E-24
  7.1350001E-03    9.9999677E-25
  7.1700001E-03    1.0000013E-24
  7.2050001E-03    1.0000034E-24
  7.2400002E-03    9.9999854E-25
  7.2750002E-03    9.9999874E-25
  7.3099998E-03    1.0000021E-24
  7.3449998E-03    9.9999874E-25
  7.3799998E-03    9.9999706E-25
  7.4149999E-03    1.0000023E-24
  7.4499999E-03    1.0000022E-24
  7.4850000E-03    9.9999726E-25
  7.5200000E-03    1.0000003E-24
  7.5550000E-03    1.0000047E-24
  7.5900001E-03    9.9999893E-25
  7.6250001E-03    9.9999489E-25
  7.6600001E-03    1.0000017E-24
  7.6950002E-03    1.0000038E-24
  7.7300002E-03    9.9999755E-25
  7.7650002E-03    9.9999963E-25
  7.7999998E-03    1.0000035E-24
  7.8349998E-03    9.9999854E-25
  7.8699999E-03    9.9999864E-25
  7.9049999E-03    1.0000040E-24
  7.9399999E-03    9.9999982E-25
  7.9750000E-03    9.9999726E-25
  8.0100000E-03    1.0000023E-24
  8.0450000E-03    9.9999982E-25
  8.0800001E-03    9.9999647E-25
  8.1150001E-03    1.0000025E-24
  8.1500001E-03    1.0000026E-24
  8.1850002E-03    9.9999726E-25
  8.2200002E-03    9.9999923E-25
  8.2550002E-03    1.0000007E-24
  8.2900003E-03    9.9999864E-25
  8.3250003E-03    1.0000012E-24
  8.3600003E-03    1.0000019E-24
  8.3950004E-03    9.9999933E-25
  8.4300004E-03    1.0000009E-24
  8.4650004E-03    1.0000030E-24
  8.5000005E-03    1.0000002E-24
  8.5349996E-03    9.9999716E-25
  8.5699996E-03    9.9999657E-25
  8.6049996E-03    9.9999982E-25
  8.6399997E-03    1.0000023E-24
  8.6749997E-03    1.0000002E-24
  8.7099997E-03    9.9999963E-25
  8.7449998E-03    1.0000032E-24
  8.7799998E-03    1.0000032E-24
  8.8149998E-03    9.9999716E-25
  8.8499999E-03    9.9999341E-25
  8.8849999E-03    1.0000014E-24
  8.9199999E-03    1.0000128E-24
  8.9550000E-03    1.0000008E-24
  8.9900000E-03    9.9997655E-25
  9.0250000E-03    9.9999351E-25
  9.0600001E-03    1.0000386E-24
  9.0950001E-03    1.0000202E-24
  9.1300001E-03    9.9994401E-25
  9.1650002E-03    9.9995525E-25
  9.2000002E-03    1.0000773E-24
  9.2350002E-03    1.0000900E-24
  9.2700003E-03    9.9990013E-25
  9.3050003E-03    9.9983179E-25
  9.3400003E-03    1.0001174E-24
  9.3750004E-03    1.0002998E-24
  9.4100004E-03    9.9989342E-25
  9.4450004E-03    9.9949495E-25
  9.4799995E-03    1.0000294E-24
  9.5149996E-03    1.0008071E-24
  9.5499996E-03    1.0001772E-24
  9.5849996E-03    9.9877265E-25
  9.6199997E-03    9.9937938E-25
  9.6549997E-03    1.0017627E-24
  9.6899997E-03    1.0014663E-24
  9.7249998E-03    9.9764389E-25
  9.7599998E-03    9.9704810E-25
  9.7949998E-03    1.0028535E-24
  9.8299999E-03    1.0054100E-24
  9.8649999E-03    9.9709011E-25
  9.8999999E-03    9.9076019E-25
  9.9350000E-03    1.0018798E-24
  9.9700000E-03    1.0148599E-24
  1.0005000E-02    1.0013578E-24
  1.0040000E-02    9.7743672E-25
  1.0075000E-02    9.9139059E-25
  1.0110000E-02    1.0322374E-24
  1.0145000E-02    1.0226004E-24
  1.0180000E-02    9.5713973E-25
  1.0215000E-02    9.5285207E-25
  1.0250000E-02    1.0516944E-24
  1.0285000E-02    1.0871818E-24
  1.0320000E-02    9.4695908E-25
  1.0355000E-02    8.5165828E-25
  1.0390000E-02    1.0365239E-24
  1.0425000E-02    1.2358234E-24
  1.0460000E-02    1.0151075E-24
  1.0495000E-02    6.4807684E-25
  1.0530000E-02    8.7156449E-25
  1.0565000E-02    1.4915598E-24
  1.0600000E-02    1.3415319E-24
  1.0635000E-02    3.6510159E-25
  1.0670000E-02    2.9531854E-25
  1.0705000E-02    1.7361740E-24
  1.0740000E-02    2.2777031E-24
  1.0775000E-02    2.9187799E-25
  1.0810000E-02   -1.1207021E-24
  1.0845000E-02    1.4021746E-24
  1.0880000E-02    4.2737719E-24
  1.0915000E-02    1.4137081E-24
  1.0950000E-02   -3.7196314E-24
  1.0985000E-02   -1.0746645E-24
  1.1020000E-02    7.3224538E-24
  1.1055000E-02    6.0266220E-24
  1.1090000E-02   -6.7359468E-24
  1.1125000E-02   -8.8057821E-24
  1.1160000E-02    9.2768694E-24
  1.1195000E-02    1.7965367E-23
  1.1230000E-02   -5.7673463E-24
  1.1265000E-02   -2.5914384E-23
  1.1300000E-02    2.3629009E-24
  1.1335000E-02    4.0625882E-23
  1.1370000E-02    1.1593463E-23
  1.1405000E-02   -5.3166133E-23
  1.1440000E-02   -3.1615926E-23
  1.1475000E-02    6.9003923E-23
  1.1510000E-02    6.9898068E-23
  1.1545000E-02   -7.5083547E-23
  1.1580000E-02   -1.2273135E-22
  1.1615000E-02    7.0710374E-23
  1.1650000E-02    2.0128575E-22
  1.1685000E-02   -3.4393474E-23
  1.1720000E-02   -2.9746443E-22
  1.1755000E-02   -4.5030844E-23
  1.1790000E-02    4.1255403E-22
  1.1825000E-02    2.0045280E-22
  1.1860000E-02   -5.2047992E-22
  1.1895000E-02   -4.5286710E-22
  1.1930000E-02    5.9369015E-22
  1.1965000E-02    8.3890155E-22
  1.2000000E-02   -5.6416343E-22
  1.2035000E-02   -1.3700465E-21
  1.2070000E-02    3.4877315E-22
  1.2105000E-02    2.0499890E-21
  1.2140000E-02    1.8671048E-22
  1.2175000E-02   -2.8206744E-21
  1.2210000E-02   -1.1932772E-21
  1.2245000E-02    3.5646456E-21
  1.2280000E-02    2.8566783E-21
  1.2315000E-02   -4.0369112E-21
  1.2350000E-02   -5.3329635E-21
  1.2385000E-02    3.8587608E-21
  1.2420000E-02    8.7215525E-21
  1.2455000E-02   -2.4543921E-21
  1.2490000E-02   -1.2940641E-20
  1.2525000E-02   -9.2649802E-22
  1.2560000E-02    1.7628293E-20
  1.2595000E-02    7.2057060E-21
  1.2630000E-02   -2.1943735E-20
  1.2665000E-02   -1.7335496E-20
  1.2700000E-02    2.4410901E-20
  1.2735000E-02    3.2112395E-20
  1.2770000E-02   -2.2709691E-20
  1.2805000E-02   -5.1782237E-20
  1.2840000E-02    1.3600722E-20
  1.2875000E-02    7.5538941E-20
  1.2910000E-02    7.0554790E-21
  1.2945000E-02   -1.0078941E-19
  1.2980000E-02   -4.3936622E-20
  1.3015000E-02    1.2235339E-19
  1.3050000E-02    1.0153705E-19
  1.3085000E-02   -1.3158878E-19
  1.3120000E-02   -1.8280545E-19
  1.3155000E-02    1.1578529E-19
  1.3190000E-02    2.8715143E-19
  1.3225000E-02   -5.8025130E-20
  1.3260000E-02   -4.0765614E-19
  1.3295000E-02   -6.1895980E-20
  1.3330000E-02    5.2774268E-19
  1.3365000E-02    2.6506111E-19
  1.3400000E-02   -6.1757196E-19
  1.3435000E-02   -5.6880180E-19
  1.3470000E-02    6.3102879E-19
  1.3505000E-02    9.7948504E-19
  1.3540000E-02   -5.0437829E-19
  1.3575000E-02   -1.4823546E-18
  1.3610000E-02    1.5836276E-19
  1.3645000E-02    2.0289425E-18
  1.3680000E-02    4.9437111E-19
  1.3715000E-02   -2.5231594E-18
  1.3750000E-02   -1.5341531E-18
  1.3785000E-02    2.8087656E-18
  1.3820000E-02    3.0097339E-18
  1.3855000E-02   -2.6620999E-18
  1.3890000E-02   -4.9031660E-18
  1.3925000E-02    1.7958819E-18
  1.3960000E-02    7.0853719E-18
  1.3995000E-02    1.1902105E-19
  1.4030000E-02   -9.2662501E-18
  1.4065000E-02   -3.4063327E-18
  1.4100000E-02    1.0947550E-17
  1.4135000E-02    8.3045592E-18
  1.4170000E-02   -1.1392093E-17
  1.4205000E-02   -1.4851995E-17
  1.4240000E-02    9.6272921E-18
  1.4275000E-02    2.2738601E-17
  1.4310000E-02   -4.5063170E-18
  1.4345000E-02   -3.1138155E-17
  1.4380000E-02   -5.1486985E-18
  1.4415000E-02    3.8545995E-17
  1.4450000E-02    2.0300066E-17
  1.4485000E-02   -4.2664285E-17
  1.4520000E-02   -4.1333299E-17
  1.4555000E-02    4.0394075E-17
  1.4590000E-02    6.7590675E-17
  1.4625000E-02   -2.8001599E-17
  1.4660000E-02   -9.6838425E-17
  1.4695000E-02    1.5382931E-18
  1.4730000E-02    1.2474687E-16
  1.4765000E-02    4.2424816E-17
  1.4800000E-02   -1.4450841E-16
  1.4835000E-02   -1.0571441E-16
  1.4870000E-02    1.4677235E-16
  1.4905000E-02    1.8715495E-16
  1.4940000E-02   -1.2009969E-16
  1.4975000E-02   -2.8097038E-16
  1.5010000E-02    5.2154767E-17
  1.5045000E-02    3.7521932E-16
  1.5080000E-02    6.8180845E-17
  1.5115000E-02   -4.5064434E-16
  1.5150000E-02   -2.4769784E-16
  1.5185000E-02    4.8042084E-16
  1.5220000E-02    4.8485828E-16
  1.5255000E-02   -4.3139070E-16
  1.5290000E-02   -7.6523969E-16
  1.5325000E-02    2.6738053E-16
  1.5360000E-02    1.0571330E-15
  1.5395000E-02    4.4920510E-17
  1.5430000E-02   -1.3083092E-15
  1.5465000E-02   -5.2739892E-16
  1.5500000E-02    1.4453309E-15
  1.5535000E-02    1.1795707E-15
  1.5570000E-02   -1.3769758E-15
  1.5605000E-02   -1.9663006E-15
  1.5640000E-02    1.0032240E-15
  1.5675001E-02    2.8061020E-15
  1.5710000E-02   -2.3101183E-16
  1.5745001E-02   -3.5627963E-15
  1.5780000E-02   -1.0030076E-15
  1.5814999E-02    4.0441558E-15
  1.5850000E-02    2.7040172E-15
  1.5884999E-02   -4.0112884E-15
  1.5920000E-02   -4.7874853E-15
  1.5954999E-02    3.2026661E-15
  1.5990000E-02    7.0500852E-15
  1.6024999E-02   -1.3748591E-15
  1.6060000E-02   -9.1498888E-15
  1.6094999E-02   -1.6396989E-15
  1.6130000E-02    1.0604860E-14
  1.6164999E-02    5.8616920E-15
  1.6200000E-02   -1.0819153E-14
  1.6235000E-02   -1.1088668E-14
  1.6270000E-02    9.1448260E-15
  1.6305000E-02    1.6826787E-14
  1.6340001E-02   -4.9841346E-15
  1.6375000E-02   -2.2248340E-14
  1.6410001E-02   -2.0701284E-15
  1.6445000E-02    2.6195302E-14
  1.6480001E-02    1.2066483E-14
  1.6515000E-02   -2.7251000E-14
  1.6550001E-02   -2.4520093E-14
  1.6585000E-02    2.3895170E-14
  1.6620001E-02    3.8263328E-14
  1.6655000E-02   -1.4749026E-14
  1.6690001E-02   -5.1365172E-14
  1.6725000E-02   -1.0984878E-15
  1.6759999E-02    6.1161830E-14
  1.6795000E-02    2.3711479E-14
  1.6829999E-02   -6.4445777E-14
  1.6865000E-02   -5.1931898E-14
  1.6899999E-02    5.7839137E-14
  1.6935000E-02    8.3078171E-14
  1.6969999E-02   -3.8359144E-14
  1.7005000E-02   -1.1281521E-13
  1.7039999E-02    4.1390765E-15
  1.7075000E-02    1.3528358E-13
  1.7109999E-02    4.4766149E-14
  1.7145000E-02   -1.4357691E-13
  1.7180000E-02   -1.0562475E-13
  1.7215000E-02    1.3060477E-13
  1.7250000E-02    1.7247559E-13
  1.7285001E-02   -9.0332872E-14
  1.7320000E-02   -2.3597647E-13
  1.7355001E-02    1.9292297E-14
  1.7390000E-02    2.8383199E-13
  1.7425001E-02    8.1812554E-14
  1.7460000E-02   -3.0193439E-13
  1.7495001E-02   -2.0669431E-13
  1.7530000E-02    2.7626401E-13
  1.7565001E-02    3.4258468E-13
  1.7600000E-02   -1.9545480E-13
  1.7635001E-02   -4.7023426E-13
  1.7670000E-02    5.3787944E-14
  1.7704999E-02    5.6510238E-13
  1.7740000E-02    1.4582952E-13
  1.7774999E-02   -5.9993205E-13
  1.7810000E-02   -3.8945090E-13
  1.7844999E-02    5.4870111E-13
  1.7880000E-02    6.5088543E-13
  1.7914999E-02   -3.9164519E-13
  1.7950000E-02   -8.9235119E-13
  1.7984999E-02    1.2077737E-13
  1.8020000E-02    1.0674262E-12
  1.8054999E-02    2.5499023E-13
  1.8090000E-02   -1.1264952E-12
  1.8124999E-02   -7.0616223E-13
  1.8160000E-02    1.0244655E-12
  1.8195000E-02    1.1815923E-12
  1.8230001E-02   -7.2994432E-13
  1.8265000E-02   -1.6109536E-12
  1.8300001E-02    2.3471353E-13
  1.8335000E-02    1.9113478E-12
  1.8370001E-02    4.3823297E-13
  1.8405000E-02   -1.9980630E-12
  1.8440001E-02   -1.2299389E-12
  1.8475000E-02    1.7985902E-12
  1.8510001E-02    2.0457822E-12
  1.8545000E-02   -1.2683069E-12
  1.8580001E-02   -2.7621792E-12
  1.8615000E-02    4.0536156E-13
  1.8650001E-02    3.2400397E-12
  1.8685000E-02    7.3812647E-13
  1.8719999E-02   -3.3443584E-12
  1.8755000E-02   -2.0514074E-12
  1.8789999E-02    2.9680117E-12
  1.8825000E-02    3.3695913E-12
  1.8859999E-02   -2.0563341E-12
  1.8895000E-02   -4.4885194E-12
  1.8929999E-02    6.2837338E-13
  1.8965000E-02    5.1898863E-12
  1.8999999E-02    1.2097328E-12
  1.9035000E-02   -5.2742775E-12
  1.9069999E-02   -3.2633893E-12
  1.9105000E-02    4.5983391E-12
  1.9140000E-02    5.2630877E-12
  1.9175000E-02   -3.1099396E-12
  1.9210000E-02   -6.8933184E-12
  1.9245001E-02    8.7504868E-13
  1.9280000E-02    7.8354502E-12
  1.9315001E-02    1.9101639E-12
  1.9350000E-02   -7.8190614E-12
  1.9385001E-02   -4.9271073E-12
  1.9420000E-02    6.6748898E-12
  1.9455001E-02    7.7643612E-12
  1.9490000E-02   -4.3800905E-12
  1.9525001E-02   -9.9685928E-12
  1.9560000E-02    1.0868192E-12
  1.9595001E-02    1.1110790E-11
  1.9630000E-02    2.8740027E-12
  1.9664999E-02   -1.0859223E-11
  1.9700000E-02   -7.0178490E-12
  1.9734999E-02    9.0478267E-12
  1.9770000E-02    1.0762172E-11
  1.9804999E-02   -5.7266028E-12
  1.9840000E-02   -1.3505671E-11
  1.9874999E-02    1.1836116E-12
  1.9910000E-02    1.4722350E-11
  1.9944999E-02    4.0701956E-12
  1.9980000E-02   -1.4055077E-11
  2.0014999E-02   -9.3553047E-12
  2.0050000E-02    1.1392669E-11
  2.0085000E-02    1.3912265E-11
  2.0120000E-02   -6.9153047E-12
  2.0155000E-02   -1.7014907E-11
  2.0190001E-02    1.0962220E-12
  2.0225000E-02    1.8089360E-11
  2.0260001E-02    5.3454767E-12
  2.0295000E-02   -1.6819690E-11
  2.0330001E-02   -1.1537898E-11
  2.0365000E-02    1.3220671E-11
  2.0400001E-02    1.6583752E-11
  2.0435000E-02   -7.6602301E-12
  2.0470001E-02   -1.9702217E-11
  2.0505000E-02    8.2527903E-13
  2.0540001E-02    2.0362226E-11
  2.0575000E-02    6.3705131E-12
  2.0609999E-02   -1.8381232E-11
  2.0645000E-02   -1.2921739E-11
  2.0679999E-02    1.3971920E-11
  2.0715000E-02    1.7891437E-11
  2.0749999E-02   -7.7221190E-12
  2.0785000E-02   -2.0565657E-11
  2.0819999E-02    5.0992793E-13
  2.0855000E-02    2.0576709E-11
  2.0889999E-02    6.6359956E-12
  2.0925000E-02   -1.7968594E-11
  2.0959999E-02   -1.2705509E-11
  2.0995000E-02    1.3192340E-11
  2.1029999E-02    1.6876946E-11
  2.1065000E-02   -7.0281342E-12
  2.1100000E-02   -1.8655492E-11
  2.1135001E-02    4.4712988E-13
  2.1170000E-02    1.7952683E-11
  2.1205001E-02    5.5620591E-12
  2.1240000E-02   -1.5090819E-11
  2.1275001E-02   -1.0169277E-11
  2.1310000E-02    1.0730420E-11
  2.1345001E-02    1.2847105E-11
  2.1380000E-02   -5.7339589E-12
  2.1415001E-02   -1.3454436E-11
  2.1450000E-02    9.9316323E-13
  2.1485001E-02    1.2242619E-11
  2.1520000E-02    2.7462893E-12
  2.1555001E-02   -9.7832090E-12
  2.1590000E-02   -5.0265521E-12
  2.1624999E-02    6.8310379E-12
  2.1660000E-02    5.7557466E-12
  2.1694999E-02   -4.1531574E-12
  2.1730000E-02   -5.2080892E-12
  2.1764999E-02    2.3573780E-12
  2.1800000E-02    3.9445986E-12
  2.1834999E-02   -1.7581536E-12
  2.1870000E-02   -2.6716450E-12
  2.1904999E-02    2.3079737E-12
  2.1940000E-02    2.0671837E-12
  2.1974999E-02   -3.6094567E-12
  2.2010000E-02   -2.6108195E-12
  2.2045000E-02    5.0074853E-12
  2.2080000E-02    4.4556693E-12
  2.2115000E-02   -5.7420496E-12
  2.2150001E-02   -7.3688469E-12
  2.2185000E-02    5.1318077E-12
  2.2220001E-02    1.0756005E-11
  2.2255000E-02   -2.7511554E-12
  2.2290001E-02   -1.3769321E-11
  2.2325000E-02   -1.4379998E-12
  2.2360001E-02    1.5479618E-11
  2.2395000E-02    7.0277521E-12
  2.2430001E-02   -1.5082416E-11
  2.2465000E-02   -1.3199411E-11
  2.2500001E-02    1.2095398E-11
  2.2535000E-02    1.8848950E-11
  2.2569999E-02   -6.5093716E-12
  2.2605000E-02   -2.2788785E-11
  2.2639999E-02   -1.1462878E-12
  2.2675000E-02    2.3988717E-11
  2.2709999E-02    9.8430448E-12
  2.2745000E-02   -2.1815062E-11
  2.2779999E-02   -1.8205515E-11
  2.2815000E-02    1.6211107E-11
  2.2849999E-02    2.4755250E-11
  2.2885000E-02   -7.7768321E-12
  2.2919999E-02   -2.8205780E-11
  2.2955000E-02   -2.2837966E-12
  2.2990000E-02    2.7750965E-11
  2.3025000E-02    1.2352270E-11
  2.3060000E-02   -2.3283942E-11
  2.3095001E-02   -2.0703210E-11
  2.3130000E-02    1.5480178E-11
  2.3165001E-02    2.5870127E-11
  2.3200000E-02   -5.7076522E-12
  2.3235001E-02   -2.6987872E-11
  2.3270000E-02   -4.2366436E-12
  2.3305001E-02    2.4021996E-11
  2.3340000E-02    1.2516483E-11
  2.3375001E-02   -1.7817451E-11
  2.3410000E-02   -1.7693128E-11
  2.3445001E-02    9.9279187E-12
  2.3480000E-02    1.9099783E-11
  2.3514999E-02   -2.2391238E-12
  2.3550000E-02   -1.7036188E-11
  2.3584999E-02   -3.5325508E-12
  2.3620000E-02    1.2701789E-11
  2.3654999E-02    6.3240979E-12
  2.3690000E-02   -7.8671080E-12
  2.3724999E-02   -6.0568681E-12
  2.3760000E-02    4.3501977E-12
  2.3794999E-02    3.6999401E-12
  2.3830000E-02   -3.4262042E-12
  2.3864999E-02   -1.0093821E-12
  2.3900000E-02    5.3402087E-12
  2.3934999E-02   -3.7466944E-14
  2.3970000E-02   -9.1230131E-12
  2.4005000E-02   -2.0531857E-12
  2.4040001E-02    1.2804829E-11
  2.4075000E-02    7.6730445E-12
  2.4110001E-02   -1.3989474E-11
  2.4145000E-02   -1.5775877E-11
  2.4180001E-02    1.0658081E-11
  2.4215000E-02    2.3961000E-11
  2.4250001E-02   -2.0106579E-12
  2.4285000E-02   -2.9063241E-11
  2.4320001E-02   -1.0958561E-11
  2.4355000E-02    2.8145488E-11
  2.4390001E-02    2.5437201E-11
  2.4425000E-02   -1.9571102E-11
  2.4460001E-02   -3.7390483E-11
  2.4495000E-02    3.7942227E-12
  2.4529999E-02    4.2614558E-11
  2.4565000E-02    1.6351453E-11
  2.4599999E-02   -3.8041736E-11
  2.4635000E-02   -3.6045323E-11
  2.4669999E-02    2.2983008E-11
  2.4705000E-02    4.9650187E-11
  2.4739999E-02    2.0105827E-13
  2.4775000E-02   -5.2388548E-11
  2.4809999E-02   -2.6393655E-11
  2.4845000E-02    4.1902364E-11
  2.4879999E-02    4.8876393E-11
  2.4915000E-02   -1.9239391E-11
  2.4950000E-02   -6.1018482E-11
  2.4985000E-02   -1.0936162E-11
  2.5020000E-02    5.8238442E-11
  2.5055001E-02    4.1172767E-11
  2.5090000E-02   -3.9734563E-11
  2.5125001E-02   -6.3202110E-11
  2.5160000E-02    9.1268633E-12
  2.5195001E-02    7.0375358E-11
  2.5230000E-02    2.6332636E-11
  2.5265001E-02   -5.9597889E-11
  2.5300000E-02   -5.7504546E-11
  2.5335001E-02    3.2406341E-11
  2.5370000E-02    7.5624840E-11
  2.5405001E-02    4.9067039E-12
  2.5440000E-02   -7.4942851E-11
  2.5474999E-02   -4.2680234E-11
  2.5510000E-02    5.4819059E-11
  2.5544999E-02    7.0749837E-11
  2.5580000E-02   -2.0014681E-11
  2.5614999E-02   -8.1394419E-11
  2.5650000E-02   -2.0724658E-11
  2.5684999E-02    7.1227801E-11
  2.5720000E-02    5.6707437E-11
  2.5754999E-02   -4.2302110E-11
  2.5790000E-02   -7.7915452E-11
  2.5824999E-02    2.2135661E-12
  2.5860000E-02    7.8280306E-11
  2.5895000E-02    3.7983294E-11
  2.5930000E-02   -5.7847751E-11
  2.5965000E-02   -6.7480056E-11
  2.6000001E-02    2.2264777E-11
  2.6035000E-02    7.8553157E-11
  2.6070001E-02    1.9071545E-11
  2.6105000E-02   -6.8036875E-11
  2.6140001E-02   -5.4844084E-11
  2.6175000E-02    3.8680691E-11
  2.6210001E-02    7.4810491E-11
  2.6245000E-02    8.0388436E-13
  2.6280001E-02   -7.3776325E-11
  2.6315000E-02   -3.8981443E-11
  2.6350001E-02    5.3098043E-11
  2.6385000E-02    6.5879642E-11
  2.6419999E-02   -1.8911126E-11
  2.6455000E-02   -7.4799077E-11
  2.6489999E-02   -1.9530417E-11
  2.6525000E-02    6.3370968E-11
  2.6559999E-02    5.1136390E-11
  2.6595000E-02   -3.5568121E-11
  2.6629999E-02   -6.6921996E-11
  2.6665000E-02    9.1260615E-13
  2.6699999E-02    6.4233993E-11
  2.6735000E-02    3.0513942E-11
  2.6769999E-02   -4.6086805E-11
  2.6805000E-02   -5.1464718E-11
  2.6839999E-02    1.8131947E-11
  2.6875000E-02    5.7154104E-11
  2.6910000E-02    1.1518697E-11
  2.6945001E-02   -4.6594412E-11
  2.6980000E-02   -3.3199474E-11