 -4.8000002E-03    1.0000000E-24
 -4.7650002E-03    1.0000002E-24
 -4.7300002E-03    1.0000001E-24
 -4.6950001E-03    1.0000001E-24
 -4.6600001E-03    1.0000002E-24
 -4.6250001E-03    1.0000000E-24
 -4.5900000E-03    9.9999992E-25
 -4.5550000E-03    1.0000002E-24
 -4.5200000E-03    1.0000000E-24
 -4.4849999E-03    9.9999953E-25
 -4.4499999E-03    1.0000001E-24
 -4.4149999E-03    1.0000006E-24
 -4.3799998E-03    1.0000004E-24
 -4.3449998E-03    1.0000000E-24
 -4.3100002E-03    9.9999982E-25
 -4.2750002E-03    1.0000002E-24
 -4.2400002E-03    1.0000002E-24
 -4.2050001E-03    9.9999982E-25
 -4.1700001E-03    9.9999972E-25
 -4.1350001E-03    1.0000004E-24
 -4.1000000E-03    1.0000008E-24
 -4.0650000E-03    1.0000002E-24
 -4.0300000E-03    9.9999963E-25
 -3.9949999E-03    9.9999953E-25
 -3.9599999E-03    1.0000000E-24
 -3.9249999E-03    1.0000003E-24
 -3.8900001E-03    9.9999982E-25
 -3.8550000E-03    9.9999972E-25
 -3.8200000E-03    1.0000005E-24
 -3.7849999E-03    1.0000008E-24
 -3.7499999E-03    9.9999972E-25
 -3.7150001E-03    9.9999903E-25
 -3.6800001E-03    1.0000001E-24
 -3.6450000E-03    1.0000008E-24
 -3.6100000E-03    1.0000001E-24
 -3.5750000E-03    9.9999972E-25
 -3.5399999E-03    1.0000004E-24
 -3.5049999E-03    1.0000006E-24
 -3.4700001E-03    9.9999982E-25
 -3.4350001E-03    9.9999933E-25
 -3.4000000E-03    9.9999972E-25
 -3.3650000E-03    1.0000002E-24
 -3.3300000E-03    1.0000005E-24
 -3.2949999E-03    1.0000004E-24
 -3.2599999E-03    9.9999982E-25
 -3.2250001E-03    9.9999963E-25
 -3.1900001E-03    1.0000005E-24
 -3.1550000E-03    1.0000006E-24
 -3.1200000E-03    9.9999923E-25
 -3.0850000E-03    9.9999953E-25
 -3.0499999E-03    1.0000010E-24
 -3.0149999E-03    1.0000008E-24
 -2.9800001E-03    9.9999963E-25
 -2.9450001E-03    9.9999982E-25
 -2.9100000E-03    1.0000005E-24
 -2.8750000E-03    9.9999972E-25
 -2.8400000E-03    9.9999923E-25
 -2.8049999E-03    9.9999963E-25
 -2.7699999E-03    1.0000007E-24
 -2.7350001E-03    1.0000007E-24
 -2.7000001E-03    1.0000001E-24
 -2.6650000E-03    9.9999972E-25
 -2.6300000E-03    9.9999953E-25
 -2.5950000E-03    9.9999972E-25
 -2.5599999E-03    1.0000003E-24
 -2.5249999E-03    1.0000007E-24
 -2.4900001E-03    1.0000004E-24
 -2.4550001E-03    9.9999992E-25
 -2.4200000E-03    1.0000005E-24
 -2.3850000E-03    1.0000009E-24
 -2.3500000E-03    9.9999963E-25
 -2.3149999E-03    9.9999884E-25
 -2.2799999E-03    1.0000002E-24
 -2.2450001E-03    1.0000008E-24
 -2.2100001E-03    9.9999923E-25
 -2.1750000E-03    9.9999903E-25
 -2.1400000E-03    1.0000004E-24
 -2.1050000E-03    1.0000001E-24
 -2.0699999E-03    9.9999943E-25
 -2.0349999E-03    1.0000006E-24
 -2.0000001E-03    1.0000015E-24
 -1.9650001E-03    1.0000002E-24
 -1.9300000E-03    9.9999953E-25
 -1.8950000E-03    1.0000004E-24
 -1.8600000E-03    1.0000000E-24
 -1.8250000E-03    9.9999943E-25
 -1.7900000E-03    1.0000000E-24
 -1.7550000E-03    1.0000005E-24
 -1.7199999E-03    1.0000006E-24
 -1.6850000E-03    1.0000004E-24
 -1.6500000E-03    9.9999982E-25
 -1.6150000E-03    9.9999933E-25
 -1.5800000E-03    9.9999972E-25
 -1.5450000E-03    9.9999943E-25
 -1.5100000E-03    9.9999972E-25
 -1.4750001E-03    1.0000008E-24
 -1.4400000E-03    1.0000005E-24
 -1.4050000E-03    9.9999943E-25
 -1.3700000E-03    1.0000001E-24
 -1.3350000E-03    1.0000006E-24
 -1.3000000E-03    9.9999943E-25
 -1.2650000E-03    9.9999992E-25
 -1.2300001E-03    1.0000015E-24
 -1.1950000E-03    1.0000000E-24
 -1.1600000E-03    9.9999933E-25
 -1.1250000E-03    1.0000014E-24
 -1.0900000E-03    1.0000007E-24
 -1.0550000E-03    9.9999824E-25
 -1.0200000E-03    1.0000000E-24
 -9.8500005E-04    1.0000019E-24
 -9.5000002E-04    9.9999992E-25
 -9.1499998E-04    9.9999844E-25
 -8.8000001E-04    9.9999992E-25
 -8.4499997E-04    1.0000004E-24
 -8.1000000E-04    9.9999963E-25
 -7.7500002E-04    1.0000000E-24
 -7.3999999E-04    1.0000012E-24
 -7.0500001E-04    1.0000007E-24
 -6.6999998E-04    9.9999933E-25
 -6.3500000E-04    9.9999963E-25
 -6.0000003E-04    1.0000001E-24
 -5.6499999E-04    9.9999972E-25
 -5.3000002E-04    1.0000002E-24
 -4.9499999E-04    1.0000007E-24
 -4.6000001E-04    1.0000001E-24
 -4.2500001E-04    9.9999953E-25
 -3.9000000E-04    9.9999982E-25
 -3.5500000E-04    1.0000004E-24
 -3.1999999E-04    1.0000008E-24
 -2.8499999E-04    1.0000004E-24
 -2.5000001E-04    9.9999963E-25
 -2.1499999E-04    1.0000002E-24
 -1.8000000E-04    1.0000010E-24
 -1.4500000E-04    9.9999953E-25
 -1.1000000E-04    9.9999874E-25
 -7.5000004E-05    1.0000006E-24
 -3.9999999E-05    1.0000009E-24
 -4.9999999E-06    9.9999943E-25
  2.9999999E-05    9.9999972E-25
  6.5000000E-05    1.0000004E-24
  9.9999997E-05    1.0000000E-24
  1.3499999E-04    1.0000006E-24
  1.7000000E-04    1.0000004E-24
  2.0500000E-04    9.9999874E-25
  2.3999999E-04    9.9999933E-25
  2.7500000E-04    1.0000013E-24
  3.1000000E-04    1.0000000E-24
  3.4500001E-04    9.9999884E-25
  3.8000001E-04    1.0000006E-24
  4.1499999E-04    1.0000012E-24
  4.4999999E-04    9.9999923E-25
  4.8500000E-04    9.9999903E-25
  5.2000000E-04    1.0000015E-24
  5.5499998E-04    1.0000016E-24
  5.9000001E-04    9.9999923E-25
  6.2499999E-04    9.9999923E-25
  6.6000002E-04    1.0000005E-24
  6.9500000E-04    9.9999972E-25
  7.3000003E-04    9.9999972E-25
  7.6500000E-04    1.0000015E-24
  7.9999998E-04    1.0000007E-24
  8.3500001E-04    9.9999815E-25
  8.6999999E-04    9.9999834E-25
  9.0500002E-04    1.0000013E-24
  9.4000000E-04    1.0000012E-24
  9.7499997E-04    9.9999854E-25
  1.0100000E-03    9.9999933E-25
  1.0450000E-03    1.0000020E-24
  1.0800000E-03    1.0000004E-24
  1.1150000E-03    9.9999795E-25
  1.1500000E-03    9.9999982E-25
  1.1849999E-03    1.0000013E-24
  1.2200000E-03    1.0000001E-24
  1.2550000E-03    1.0000004E-24
  1.2900000E-03    1.0000010E-24
  1.3250000E-03    1.0000002E-24
  1.3600000E-03    9.9999953E-25
  1.3950000E-03    9.9999992E-25
  1.4299999E-03    9.9999953E-25
  1.4650000E-03    9.9999963E-25
  1.5000000E-03    1.0000005E-24
  1.5350000E-03    1.0000000E-24
  1.5700000E-03    1.0000003E-24
  1.6050000E-03    1.0000014E-24
  1.6400000E-03    9.9999963E-25
  1.6749999E-03    9.9999795E-25
  1.7100000E-03    1.0000007E-24
  1.7450000E-03    1.0000010E-24
  1.7800000E-03    9.9999775E-25
  1.8150000E-03    9.9999923E-25
  1.8500000E-03    1.0000029E-24
  1.8850000E-03    1.0000014E-24
  1.9200000E-03    9.9999854E-25
  1.9550000E-03    9.9999972E-25
  1.9900000E-03    1.0000015E-24
  2.0250001E-03    1.0000008E-24
  2.0600001E-03    9.9999992E-25
  2.0949999E-03    9.9999972E-25
  2.1299999E-03    9.9999963E-25
  2.1650000E-03    1.0000002E-24
  2.2000000E-03    1.0000008E-24
  2.2350000E-03    9.9999972E-25
  2.2700001E-03    9.9999933E-25
  2.3050001E-03    1.0000003E-24
  2.3399999E-03    9.9999972E-25
  2.3749999E-03    9.9999893E-25
  2.4100000E-03    1.0000005E-24
  2.4450000E-03    1.0000012E-24
  2.4800000E-03    9.9999933E-25
  2.5150001E-03    9.9999913E-25
  2.5500001E-03    1.0000010E-24
  2.5849999E-03    1.0000002E-24
  2.6199999E-03    9.9999923E-25
  2.6550000E-03    1.0000013E-24
  2.6900000E-03    1.0000024E-24
  2.7250000E-03    9.9999963E-25
  2.7600001E-03    9.9999736E-25
  2.7950001E-03    9.9999913E-25
  2.8299999E-03    1.0000011E-24
  2.8649999E-03    9.9999982E-25
  2.9000000E-03    1.0000000E-24
  2.9350000E-03    1.0000018E-24
  2.9700000E-03    1.0000001E-24
  3.0050001E-03    9.9999824E-25
  3.0400001E-03    9.9999992E-25
  3.0749999E-03    1.0000019E-24
  3.1099999E-03    1.0000001E-24
  3.1450000E-03    9.9999923E-25
  3.1800000E-03    1.0000011E-24
  3.2150000E-03    1.0000015E-24
  3.2500001E-03    9.9999864E-25
  3.2850001E-03    9.9999775E-25
  3.3199999E-03    1.0000005E-24
  3.3549999E-03    1.0000005E-24
  3.3900000E-03    9.9999795E-25
  3.4250000E-03    9.9999982E-25
  3.4600000E-03    1.0000033E-24
  3.4950001E-03    1.0000018E-24
  3.5300001E-03    9.9999854E-25
  3.5649999E-03    9.9999874E-25
  3.5999999E-03    1.0000003E-24
  3.6350000E-03    1.0000008E-24
  3.6700000E-03    1.0000004E-24
  3.7050000E-03    1.0000006E-24
  3.7400001E-03    1.0000012E-24
  3.7750001E-03    1.0000004E-24
  3.8099999E-03    9.9999864E-25
  3.8449999E-03    9.9999854E-25
  3.8800000E-03    9.9999992E-25
  3.9149998E-03    1.0000005E-24
  3.9499998E-03    1.0000001E-24
  3.9849998E-03    9.9999943E-25
  4.0199999E-03    9.9999893E-25
  4.0549999E-03    9.9999992E-25
  4.0899999E-03    1.0000013E-24
  4.1250000E-03    1.0000009E-24
  4.1600000E-03    9.9999953E-25
  4.1950000E-03    9.9999953E-25
  4.2300001E-03    1.0000000E-24
  4.2650001E-03    9.9999963E-25
  4.3000001E-03    9.9999963E-25
  4.3350002E-03    1.0000008E-24
  4.3700002E-03    1.0000012E-24
  4.4049998E-03    1.0000005E-24
  4.4399998E-03    9.9999943E-25
  4.4749998E-03    9.9999913E-25
  4.5099999E-03    1.0000007E-24
  4.5449999E-03    1.0000024E-24
  4.5799999E-03    1.0000007E-24
  4.6150000E-03    9.9999785E-25
  4.6500000E-03    9.9999874E-25
  4.6850001E-03    1.0000009E-24
  4.7200001E-03    1.0000003E-24
  4.7550001E-03    1.0000004E-24
  4.7900002E-03    1.0000018E-24
  4.8250002E-03    1.0000008E-24
  4.8600002E-03    9.9999854E-25
  4.8949998E-03    9.9999824E-25
  4.9299998E-03    9.9999893E-25
  4.9649999E-03    1.0000001E-24
  4.9999999E-03    1.0000007E-24
  5.0349999E-03    1.0000003E-24
  5.0700000E-03    1.0000005E-24
  5.1050000E-03    1.0000010E-24
  5.1400000E-03    9.9999963E-25
  5.1750001E-03    9.9999884E-25
  5.2100001E-03    9.9999972E-25
  5.2450001E-03    9.9999972E-25
  5.2800002E-03    1.0000004E-24
  5.3150002E-03    1.0000021E-24
  5.3500002E-03    1.0000019E-24
  5.3849998E-03    1.0000006E-24
  5.4199998E-03    9.9999992E-25
  5.4549999E-03    9.9999982E-25
  5.4899999E-03    9.9999972E-25
  5.5249999E-03    9.9999933E-25
  5.5600000E-03    9.9999943E-25
  5.5950000E-03    1.0000007E-24
  5.6300000E-03    1.0000010E-24
  5.6650001E-03    9.9999884E-25
  5.7000001E-03    9.9999824E-25
  5.7350001E-03    1.0000006E-24
  5.7700002E-03    1.0000019E-24
  5.8050002E-03    1.0000005E-24
  5.8400002E-03    9.9999933E-25
  5.8749998E-03    1.0000004E-24
  5.9099998E-03    1.0000008E-24
  5.9449999E-03    9.9999923E-25
  5.9799999E-03    9.9999884E-25
  6.0149999E-03    1.0000000E-24
  6.0500000E-03    1.0000008E-24
  6.0850000E-03    1.0000003E-24
  6.1200000E-03    9.9999992E-25
  6.1550001E-03    9.9999943E-25
  6.1900001E-03    9.9999943E-25
  6.2250001E-03    9.9999992E-25
  6.2600002E-03    1.0000002E-24
  6.2950002E-03    9.9999982E-25
  6.3299998E-03    1.0000006E-24
  6.3649998E-03    1.0000019E-24
  6.3999998E-03    1.0000011E-24
  6.4349999E-03    9.9999893E-25
  6.4699999E-03    9.9999854E-25
  6.5049999E-03    1.0000005E-24
  6.5400000E-03    1.0000011E-24
  6.5750000E-03    1.0000002E-24
  6.6100000E-03    1.0000005E-24
  6.6450001E-03    1.0000010E-24
  6.6800001E-03    1.0000006E-24
  6.7150001E-03    9.9999923E-25
  6.7500002E-03    9.9999805E-25
  6.7850002E-03    9.9999943E-25
  6.8199998E-03    1.0000017E-24
  6.8549998E-03    1.0000006E-24
  6.8899998E-03    9.9999884E-25
  6.9249999E-03    9.9999943E-25
  6.9599999E-03    1.0000003E-24
  6.9949999E-03    9.9999972E-25
  7.0300000E-03    9.9999943E-25
  7.0650000E-03    1.0000000E-24
  7.1000000E-03    1.0000008E-24
  7.1350001E-03    1.0000009E-24
  7.1700001E-03    1.0000015E-24
  7.2050001E-03    1.0000015E-24
  7.2400002E-03    9.9999775E-25
  7.2750002E-03    9.9999864E-25
  7.3099998E-03    1.0000023E-24
  7.3449998E-03    1.0000010E-24
  7.3799998E-03    9.9999608E-25
  7.4149999E-03    9.9999953E-25
  7.4499999E-03    1.0000069E-24
  7.4850000E-03    1.0000101E-24
  7.5200000E-03    9.9998848E-25
  7.5550000E-03    9.9999075E-25
  7.5900001E-03    1.0000162E-24
  7.6250001E-03    9.9999154E-25
  7.6600001E-03    9.9997182E-25
  7.6950002E-03    1.0000224E-24
  7.7300002E-03    1.0000171E-24
  7.7650002E-03    9.9999588E-25
  7.7999998E-03    1.0000074E-24
  7.8349998E-03    9.9998020E-25
  7.8699999E-03    9.9998365E-25
  7.9049999E-03    1.0000206E-24
  7.9399999E-03    9.9994470E-25
  7.9750000E-03    9.9998779E-25
  8.0100000E-03    1.0001184E-24
  8.0450000E-03    9.9998868E-25
  8.0800001E-03    9.9998898E-25
  8.1150001E-03    9.9970962E-25
  8.1500001E-03    9.9965450E-25
  8.1850002E-03    1.0005122E-24
  8.2200002E-03    1.0007978E-24
  8.2550002E-03    1.0006366E-24
  8.2900003E-03    9.9997418E-25
  8.3250003E-03    1.0001518E-24
  8.3600003E-03    9.9989047E-25
  8.3950004E-03    9.9927742E-25
  8.4300004E-03    1.0000896E-24
  8.4650004E-03    1.0022278E-24
  8.5000005E-03    9.9950925E-25
  8.5349996E-03    1.0003886E-24
  8.5699996E-03    1.0032986E-24
  8.6049996E-03    1.0012883E-24
  8.6399997E-03    9.9832744E-25
  8.6749997E-03    9.9640222E-25
  8.7099997E-03    1.0012703E-24
  8.7449998E-03    1.0109153E-24
  8.7799998E-03    1.0002097E-24
  8.8149998E-03    9.9215815E-25
  8.8499999E-03    9.9773283E-25
  8.8849999E-03    1.0024525E-24
  8.9199999E-03    1.0035574E-24
  8.9550000E-03    9.9613618E-25
  8.9900000E-03    9.8532366E-25
  9.0250000E-03    9.9730734E-25
  9.0600001E-03    1.0453790E-24
  9.0950001E-03    1.0528717E-24
  9.1300001E-03    1.0006582E-24
  9.1650002E-03    1.0202645E-24
  9.2000002E-03    9.8933689E-25
  9.2350002E-03    1.0047573E-24
  9.2700003E-03    1.0429728E-24
  9.3050003E-03    1.0230494E-24
  9.3400003E-03    8.7754110E-25
  9.3750004E-03    9.4674925E-25
  9.4100004E-03    1.0984623E-24
  9.4450004E-03    9.8199378E-25
  9.4799995E-03    9.7533244E-25
  9.5149996E-03    1.3980558E-24
  9.5499996E-03    1.4382105E-24
  9.5849996E-03    4.4125280E-25
  9.6199997E-03    7.1934855E-25
  9.6549997E-03    1.7663316E-24
  9.6899997E-03    1.1233815E-24
  9.7249998E-03   -5.2138899E-26
  9.7599998E-03    2.5007781E-25
  9.7949998E-03    3.1392757E-24
  9.8299999E-03    3.5867659E-24
  9.8649999E-03    2.8718225E-26
  9.8999999E-03   -8.7632438E-25
  9.9350000E-03    2.1991763E-25
  9.9700000E-03    4.3715102E-24
  1.0005000E-02    1.3626553E-24
  1.0040000E-02   -5.1355289E-25
  1.0075000E-02    1.0316699E-24
  1.0110000E-02   -3.1073858E-24
  1.0145000E-02    4.0824501E-25
  1.0180000E-02    2.6524785E-25
  1.0215000E-02    3.5338050E-24
  1.0250000E-02   -8.1000287E-25
  1.0285000E-02    2.8488828E-24
  1.0320000E-02    8.3937869E-24
  1.0355000E-02   -2.7619573E-23
  1.0390000E-02   -3.7054990E-23
  1.0425000E-02    3.6387702E-23
  1.0460000E-02    4.2644928E-23
  1.0495000E-02   -4.4920116E-23
  1.0530000E-02   -6.1449942E-23
  1.0565000E-02    2.8543521E-23
  1.0600000E-02    5.4812031E-23
  1.0635000E-02   -5.7193343E-23
  1.0670000E-02   -9.9033787E-23
  1.0705000E-02   -5.6357170E-23
  1.0740000E-02    6.8678193E-23
  1.0775000E-02    5.8133344E-23
  1.0810000E-02   -1.5287727E-22
  1.0845000E-02   -2.8035306E-22
  1.0880000E-02    1.9650460E-22
  1.0915000E-02    3.1575189E-22
  1.0950000E-02   -3.5712384E-22
  1.0985000E-02   -4.0822017E-22
  1.1020000E-02    2.6304967E-22
  1.1055000E-02    1.9633146E-22
  1.1090000E-02   -1.0090574E-22
  1.1125000E-02   -5.4101303E-22
  1.1160000E-02   -6.9567697E-22
  1.1195000E-02    5.2114378E-22
  1.1230000E-02    1.1051272E-21
  1.1265000E-02   -1.6280610E-22
  1.1300000E-02   -2.0958652E-21
  1.1335000E-02    2.1667694E-22
  1.1370000E-02    2.1836966E-21
  1.1405000E-02   -9.2072139E-22
  1.1440000E-02   -2.8801445E-21
  1.1475000E-02    1.9550268E-22
  1.1510000E-02    2.5612699E-21
  1.1545000E-02    2.1345874E-21
  1.1580000E-02   -4.5773527E-22
  1.1615000E-02   -3.3460575E-21
  1.1650000E-02    2.9117396E-21
  1.1685000E-02    7.0179958E-21
  1.1720000E-02   -3.4404800E-21
  1.1755000E-02   -1.1410811E-20
  1.1790000E-02   -2.4641315E-21
  1.1825000E-02    1.5839522E-20
  1.1860000E-02    1.1215478E-20
  1.1895000E-02   -1.7131948E-20
  1.1930000E-02   -1.7906447E-20
  1.1965000E-02    9.9727286E-21
  1.2000000E-02    1.4128923E-20
  1.2035000E-02   -9.4498785E-21
  1.2070000E-02   -1.9977375E-20
  1.2105000E-02   -2.7233607E-21
  1.2140000E-02    2.8750055E-20
  1.2175000E-02    1.1743938E-20
  1.2210000E-02   -3.8653820E-20
  1.2245000E-02   -3.8637125E-20
  1.2280000E-02    2.5238305E-20
  1.2315000E-02    4.0733427E-20
  1.2350000E-02   -1.7437568E-20
  1.2385000E-02   -2.6041088E-20
  1.2420000E-02    5.3855969E-20
  1.2455000E-02    4.1577765E-20
  1.2490000E-02   -1.0338357E-20
  1.2525000E-02   -4.9534981E-20
  1.2560000E-02   -4.7264464E-20
  1.2595000E-02    1.5537935E-19
  1.2630000E-02    1.6138224E-19
  1.2665000E-02   -1.3750778E-19
  1.2700000E-02   -1.1336241E-19
  1.2735000E-02    2.3580515E-19
  1.2770000E-02    1.3598401E-19
  1.2805000E-02   -1.7391316E-19
  1.2840000E-02   -2.6720061E-19
  1.2875000E-02   -5.1132599E-20
  1.2910000E-02    2.8072551E-19
  1.2945000E-02    1.9789311E-19
  1.2980000E-02   -5.8952537E-19
  1.3015000E-02   -3.8102596E-19
  1.3050000E-02    5.0268288E-19
  1.3085000E-02    3.9050331E-19
  1.3120000E-02   -1.8799269E-19
  1.3155000E-02   -5.2937124E-19
  1.3190000E-02    3.0305410E-20
  1.3225000E-02    8.2640239E-19
  1.3260000E-02    4.4382298E-19
  1.3295000E-02   -1.0741296E-18
  1.3330000E-02   -2.8274362E-19
  1.3365000E-02    1.8791614E-18
  1.3400000E-02    7.5216179E-19
  1.3435000E-02   -2.1713272E-18
  1.3470000E-02   -1.4481006E-18
  1.3505000E-02    1.4771530E-18
  1.3540000E-02    1.7487219E-18
  1.3575000E-02   -1.0295756E-18
  1.3610000E-02   -2.7331756E-18
  1.3645000E-02    7.4353184E-20
  1.3680000E-02    3.6134550E-18
  1.3715000E-02    8.3035347E-19
  1.3750000E-02   -4.2114263E-18
  1.3785000E-02   -1.9158781E-18
  1.3820000E-02    6.0011639E-18
  1.3855000E-02    4.2796617E-18
  1.3890000E-02   -4.9705113E-18
  1.3925000E-02   -7.1413124E-18
  1.3960000E-02    3.2133303E-18
  1.3995000E-02    1.1128760E-17
  1.4030000E-02   -2.3111306E-18
  1.4065000E-02   -1.3242698E-17
  1.4100000E-02   -1.4158156E-18
  1.4135000E-02    1.5907716E-17
  1.4170000E-02    6.1772173E-18
  1.4205000E-02   -1.7407819E-17
  1.4240000E-02   -1.4445260E-17
  1.4275000E-02    1.5622398E-17
  1.4310000E-02    2.1586780E-17
  1.4345000E-02   -1.2904029E-17
  1.4380000E-02   -3.6896970E-17
  1.4415000E-02    1.9066191E-18
  1.4450000E-02    4.6166412E-17
  1.4485000E-02    1.2787493E-17
  1.4520000E-02   -5.6775771E-17
  1.4555000E-02   -3.7133114E-17
  1.4590000E-02    5.9080627E-17
  1.4625000E-02    6.5350544E-17
  1.4660000E-02   -5.1641994E-17
  1.4695000E-02   -1.0180629E-16
  1.4730000E-02    3.5581224E-17
  1.4765000E-02    1.4692332E-16
  1.4800000E-02    4.9137651E-18
  1.4835000E-02   -1.8977062E-16
  1.4870000E-02   -7.2602615E-17
  1.4905000E-02    2.0060185E-16
  1.4940000E-02    1.4151070E-16
  1.4975000E-02   -2.1263583E-16
  1.5010000E-02   -2.5172824E-16
  1.5045000E-02    1.5462457E-16
  1.5080000E-02    3.5790901E-16
  1.5115000E-02   -4.2035254E-17
  1.5150000E-02   -4.4610441E-16
  1.5185000E-02   -9.1817220E-17
  1.5220000E-02    5.2586929E-16
  1.5255000E-02    3.0890630E-16
  1.5290000E-02   -5.1344416E-16
  1.5325000E-02   -5.7743120E-16
  1.5360000E-02    4.2209068E-16
  1.5395000E-02    8.7678006E-16
  1.5430000E-02   -1.9236525E-16
  1.5465000E-02   -1.1325729E-15
  1.5500000E-02   -1.6680236E-16
  1.5535000E-02    1.3388866E-15
  1.5570000E-02    6.8328840E-16
  1.5605000E-02   -1.3731704E-15
  1.5640000E-02   -1.3024349E-15
  1.5675001E-02    1.1834024E-15
  1.5710000E-02    1.9985230E-15
  1.5745001E-02   -6.4567776E-16
  1.5780000E-02   -2.6037981E-15
  1.5814999E-02   -1.1313681E-16
  1.5850000E-02    3.1427934E-15
  1.5884999E-02    1.2875255E-15
  1.5920000E-02   -3.2938685E-15
  1.5954999E-02   -2.7686301E-15
  1.5990000E-02    2.8985569E-15
  1.6024999E-02    4.3489102E-15
  1.6060000E-02   -1.8399862E-15
  1.6094999E-02   -5.7858678E-15
  1.6130000E-02    6.7872016E-17
  1.6164999E-02    6.8167471E-15
  1.6200000E-02    2.3831579E-15
  1.6235000E-02   -7.1352954E-15
  1.6270000E-02   -5.4162654E-15
  1.6305000E-02    6.3906129E-15
  1.6340001E-02    8.6618157E-15
  1.6375000E-02   -4.3057738E-15
  1.6410001E-02   -1.1755877E-14
  1.6445000E-02    6.5596476E-16
  1.6480001E-02    1.3955357E-14
  1.6515000E-02    4.3601995E-15
  1.6550001E-02   -1.4685098E-14
  1.6585000E-02   -1.0510098E-14
  1.6620001E-02    1.3082966E-14
  1.6655000E-02    1.6984208E-14
  1.6690001E-02   -8.8665850E-15
  1.6725000E-02   -2.2874469E-14
  1.6759999E-02    1.7783626E-15
  1.6795000E-02    2.6977174E-14
  1.6829999E-02    7.8798035E-15
  1.6865000E-02   -2.8080582E-14
  1.6899999E-02   -1.9391515E-14
  1.6935000E-02    2.4968434E-14
  1.6969999E-02    3.1358983E-14
  1.7005000E-02   -1.6944567E-14
  1.7039999E-02   -4.2016260E-14
  1.7075000E-02    3.7056921E-15
  1.7109999E-02    4.8920381E-14
  1.7145000E-02    1.3746143E-14
  1.7180000E-02   -5.0211219E-14
  1.7215000E-02   -3.4015352E-14
  1.7250000E-02    4.3959377E-14
  1.7285001E-02    5.4566615E-14
  1.7320000E-02   -2.8968191E-14
  1.7355001E-02   -7.1779374E-14
  1.7390000E-02    5.6156815E-15
  1.7425001E-02    8.2197033E-14
  1.7460000E-02    2.4606822E-14
  1.7495001E-02   -8.2181447E-14
  1.7530000E-02   -5.8268298E-14
  1.7565001E-02    6.9323548E-14
  1.7600000E-02    9.0806845E-14
  1.7635001E-02   -4.2653316E-14
  1.7670000E-02   -1.1680803E-13
  1.7704999E-02    2.9624285E-15
  1.7740000E-02    1.3028421E-13
  1.7774999E-02    4.6237641E-14
  1.7810000E-02   -1.2613788E-13
  1.7844999E-02   -9.9007059E-14
  1.7880000E-02    1.0107286E-13
  1.7914999E-02    1.4730246E-13
  1.7950000E-02   -5.4836910E-14
  1.7984999E-02   -1.8239862E-13
  1.8020000E-02   -9.6159940E-15
  1.8054999E-02    1.9575571E-13
  1.8090000E-02    8.5827789E-14
  1.8124999E-02   -1.8013785E-13
  1.8160000E-02   -1.6329582E-13
  1.8195000E-02    1.3205206E-13
  1.8230001E-02    2.2899667E-13
  1.8265000E-02   -5.3014362E-14
  1.8300001E-02   -2.6930284E-13
  1.8335000E-02   -4.9678167E-14
  1.8370001E-02    2.7237438E-13
  1.8405000E-02    1.6384252E-13
  1.8440001E-02   -2.2933231E-13
  1.8475000E-02   -2.7187470E-13
  1.8510001E-02    1.3796832E-13
  1.8545000E-02    3.5349759E-13
  1.8580001E-02   -3.8283937E-15
  1.8615000E-02   -3.8831381E-13
  1.8650001E-02   -1.5837048E-13
  1.8685000E-02    3.5975858E-13
  1.8719999E-02    3.2555984E-13
  1.8755000E-02   -2.5910890E-13
  1.8789999E-02   -4.6869892E-13
  1.8825000E-02    8.7818472E-14
  1.8859999E-02    5.5575526E-13
  1.8895000E-02    1.3896269E-13
  1.8929999E-02   -5.5729369E-13
  1.8965000E-02   -3.9221098E-13
  1.8999999E-02    4.5247237E-13
  1.9035000E-02    6.3110189E-13
  1.9069999E-02   -2.3468819E-13
  1.9105000E-02   -8.0706795E-13
  1.9140000E-02   -8.3266578E-14
  1.9175000E-02    8.7147558E-13
  1.9210000E-02    4.6745241E-13
  1.9245001E-02   -7.8370502E-13
  1.9280000E-02   -8.6291667E-13
  1.9315001E-02    5.2108052E-13
  1.9350000E-02    1.1987644E-12
  1.9385001E-02   -8.7614974E-14
  1.9420000E-02   -1.3974034E-12
  1.9455001E-02   -4.7990003E-13
  1.9490000E-02    1.3878095E-12
  1.9525001E-02    1.1114226E-12
  1.9560000E-02   -1.1194502E-12
  1.9595001E-02   -1.7082090E-12
  1.9630000E-02    5.7662615E-13
  1.9664999E-02    2.1537759E-12
  1.9700000E-02    2.1015602E-13
  1.9734999E-02   -2.3313979E-12
  1.9770000E-02   -1.1593312E-12
  1.9804999E-02    2.1454678E-12
  1.9840000E-02    2.1420708E-12
  1.9874999E-02   -1.5429614E-12
  1.9910000E-02   -2.9951252E-12
  1.9944999E-02    5.3167870E-13
  1.9980000E-02    3.5421362E-12
  2.0014999E-02    8.0849959E-13
  2.0050000E-02   -3.6225903E-12
  2.0085000E-02   -2.3262405E-12
  2.0120000E-02    3.1210865E-12
  2.0155000E-02    3.8094410E-12
  2.0190001E-02   -1.9977785E-12
  2.0225000E-02   -5.0121331E-12
  2.0260001E-02    3.0696179E-13
  2.0295000E-02    5.6887498E-12
  2.0330001E-02    1.7950166E-12
  2.0365000E-02   -5.6355502E-12
  2.0400001E-02   -4.0592265E-12
  2.0435000E-02    4.7297986E-12
  2.0470001E-02    6.1684850E-12
  2.0505000E-02   -2.9636961E-12
  2.0540001E-02   -7.7791098E-12
  2.0575000E-02    4.6191929E-13
  2.0609999E-02    8.5701524E-12
  2.0645000E-02    2.5171649E-12
  2.0679999E-02   -8.2988547E-12
  2.0715000E-02   -5.6051695E-12
  2.0749999E-02    6.8471374E-12
  2.0785000E-02    8.3645122E-12
  2.0819999E-02   -4.2574303E-12
  2.0855000E-02   -1.0347599E-11
  2.0889999E-02    7.4498648E-13
  2.0925000E-02    1.1163275E-11
  2.0959999E-02    3.3142603E-12
  2.0995000E-02   -1.0541778E-11
  2.1029999E-02   -7.4217897E-12
  2.1065000E-02    8.3890186E-12
  2.1100000E-02    1.1018683E-11
  2.1135001E-02   -4.8179360E-12
  2.1170000E-02   -1.3561595E-11
  2.1205001E-02    1.5352568E-13
  2.1240000E-02    1.4606330E-11
  2.1275001E-02    5.0972265E-12
  2.1310000E-02   -1.3881222E-11
  2.1345001E-02   -1.0303514E-11
  2.1380000E-02    1.1342543E-11
  2.1415001E-02    1.4794938E-11
  2.1450000E-02   -7.1967896E-12
  2.1485001E-02   -1.7955521E-11
  2.1520000E-02    1.8899552E-12
  2.1555001E-02    1.9320927E-11
  2.1590000E-02    3.9464833E-12
  2.1624999E-02   -1.8655390E-11
  2.1660000E-02   -9.5818891E-12
  2.1694999E-02    1.5996969E-11
  2.1730000E-02    1.4297316E-11
  2.1764999E-02   -1.1653656E-11
  2.1800000E-02   -1.7494077E-11
  2.1834999E-02    6.1544663E-12
  2.1870000E-02    1.8783083E-11
  2.1904999E-02   -1.6028151E-13
  2.1940000E-02   -1.8033771E-11
  2.1974999E-02   -5.6452364E-12
  2.2010000E-02    1.5374594E-11
  2.2045000E-02    1.0664535E-11
  2.2080000E-02   -1.1139393E-11
  2.2115000E-02   -1.4461053E-11
  2.2150001E-02    5.7858267E-12
  2.2185000E-02    1.6793079E-11
  2.2220001E-02    1.9949977E-13
  2.2255000E-02   -1.7594459E-11
  2.2290001E-02   -6.3740358E-12
  2.2325000E-02    1.6920567E-11
  2.2360001E-02    1.2371763E-11
  2.2395000E-02   -1.4882234E-11
  2.2430001E-02   -1.7885212E-11
  2.2465000E-02    1.1610962E-11
  2.2500001E-02    2.2630529E-11
  2.2535000E-02   -7.2566749E-12
  2.2569999E-02   -2.6318723E-11
  2.2605000E-02    2.0082586E-12
  2.2639999E-02    2.8636392E-11
  2.2675000E-02    3.8552490E-12
  2.2709999E-02   -2.9270496E-11
  2.2745000E-02   -9.9190664E-12
  2.2779999E-02    2.7980103E-11
  2.2815000E-02    1.5622394E-11
  2.2849999E-02   -2.4692337E-11
  2.2885000E-02   -2.0331932E-11
  2.2919999E-02    1.9550568E-11
  2.2955000E-02    2.3427529E-11
  2.2990000E-02   -1.2911503E-11
  2.3025000E-02   -2.4359544E-11
  2.3060000E-02    5.3710547E-12
  2.3095001E-02    2.2774690E-11
  2.3130000E-02    2.3024477E-12
  2.3165001E-02   -1.8611708E-11
  2.3200000E-02   -9.3519819E-12
  2.3235001E-02    1.2076573E-11
  2.3270000E-02    1.5052336E-11
  2.3305001E-02   -3.5851309E-12
  2.3340000E-02   -1.8811753E-11
  2.3375001E-02   -6.2537202E-12
  2.3410000E-02    2.0218060E-11
  2.3445001E-02    1.6582305E-11
  2.3480000E-02   -1.9108022E-11
  2.3514999E-02   -2.6490725E-11
  2.3550000E-02    1.5656417E-11
  2.3584999E-02    3.5061558E-11
  2.3620000E-02   -1.0329416E-11
  2.3654999E-02   -4.1687698E-11
  2.3690000E-02    3.6741157E-12
  2.3724999E-02    4.5736592E-11
  2.3760000E-02    3.2864349E-12
  2.3794999E-02   -4.6909671E-11
  2.3830000E-02   -9.2015718E-12
  2.3864999E-02    4.5844044E-11
  2.3900000E-02    1.3988795E-11
  2.3934999E-02   -4.2784911E-11
  2.3970000E-02   -1.7021976E-11
  2.4005000E-02    3.7776872E-11
  2.4040001E-02    1.7235465E-11
  2.4075000E-02   -3.2275432E-11
  2.4110001E-02   -1.5235046E-11
  2.4145000E-02    2.6890955E-11
  2.4180001E-02    1.1615461E-11
  2.4215000E-02   -2.1999669E-11
  2.4250001E-02   -6.8434603E-12
  2.4285000E-02    1.7585879E-11
  2.4320001E-02    8.0537400E-13
  2.4355000E-02   -1.3094489E-11
  2.4390001E-02    6.9538533E-12
  2.4425000E-02    9.8474189E-12
  2.4460001E-02   -1.5035612E-11
  2.4495000E-02   -7.4331617E-12
  2.4529999E-02    2.2743221E-11
  2.4565000E-02    5.5300278E-12
  2.4599999E-02   -3.0866764E-11
  2.4635000E-02   -4.0786875E-12
  2.4669999E-02    3.7139361E-11
  2.4705000E-02   -6.3541593E-14
  2.4739999E-02   -4.4592330E-11
  2.4775000E-02    4.1562487E-12
  2.4809999E-02    4.9550176E-11
  2.4845000E-02   -1.3284954E-11
  2.4879999E-02   -5.7841690E-11
  2.4915000E-02    2.3073359E-11
  2.4950000E-02    6.8900545E-11
  2.4985000E-02   -2.8490805E-11
  2.5020000E-02   -7.4425917E-11
  2.5055001E-02    3.6085565E-11
  2.5090000E-02    9.0600485E-11
  2.5125001E-02   -2.8214452E-11
  2.5160000E-02   -1.0335553E-10
  2.5195001E-02    1.0256210E-11
  2.5230000E-02    9.8243608E-11
  2.5265001E-02    3.7339984E-12
  2.5300000E-02   -8.2565017E-11
  2.5335001E-02   -2.5192400E-12
  2.5370000E-02    6.7131613E-11
  2.5405001E-02   -9.7691820E-12
  2.5440000E-02   -6.3379607E-11
  2.5474999E-02    1.2706769E-11
  2.5510000E-02    5.1661765E-11
  2.5544999E-02   -1.8015582E-11
  2.5580000E-02   -3.4437578E-11
  2.5614999E-02    4.1021502E-11
  2.5650000E-02    1.7498536E-11
  2.5684999E-02   -9.5543309E-11
  2.5720000E-02   -2.5016810E-11
  2.5754999E-02    1.1403128E-10
  2.5790000E-02    1.2419046E-11
  2.5824999E-02   -1.4242539E-10
  2.5860000E-02    1.2774302E-11
  2.5895000E-02    1.6274568E-10
  2.5930000E-02   -1.4449065E-11
  2.5965000E-02   -1.4618888E-10
  2.6000001E-02    1.3264194E-11
  2.6035000E-02    9.5010409E-11
  2.6070001E-02   -3.4991780E-11
  2.6105000E-02   -5.6125167E-11
  2.6140001E-02    9.8028217E-11
  2.6175000E-02    9.9980260E-11
  2.6210001E-02   -1.2001714E-10
  2.6245000E-02   -1.5671309E-10
  2.6280001E-02    8.6735487E-11
  2.6315000E-02    1.7375656E-10
  2.6350001E-02   -7.1944423E-11
  2.6385000E-02   -1.6107597E-10
  2.6419999E-02    1.4690384E-10
  2.6455000E-02    2.1708280E-10
  2.6489999E-02   -1.6944500E-10
  2.6525000E-02   -2.7056735E-10
  2.6559999E-02    1.3215133E-10
  2.6595000E-02    1.5200344E-10
  2.6629999E-02   -2.0203661E-10
  2.6665000E-02   -2.6258858E-11
  2.6699999E-02    2.4261312E-10
  2.6735000E-02   -1.4510486E-10
  2.6769999E-02   -3.3474992E-10
  2.6805000E-02    5.0863112E-11
  2.6839999E-02    1.8632933E-10
  2.6875000E-02   -7.5147347E-11
  2.6910000E-02   -1.0215084E-10
  2.6945001E-02    1.9362675E-10
  2.6980000E-02    1.3618484E-10