 -4.8000002E-03    1.0000000E-24
 -4.7650002E-03    1.0000002E-24
 -4.7300002E-03    1.0000001E-24
 -4.6950001E-03    1.0000000E-24
 -4.6600001E-03    1.0000003E-24
 -4.6250001E-03    1.0000001E-24
 -4.5900000E-03    9.9999992E-25
 -4.5550000E-03    1.0000002E-24
 -4.5200000E-03    1.0000001E-24
 -4.4849999E-03    9.9999963E-25
 -4.4499999E-03    1.0000000E-24
 -4.4149999E-03    1.0000006E-24
 -4.3799998E-03    1.0000003E-24
 -4.3449998E-03    1.0000000E-24
 -4.3100002E-03    1.0000000E-24
 -4.2750002E-03    1.0000000E-24
 -4.2400002E-03    9.9999992E-25
 -4.2050001E-03    1.0000000E-24
 -4.1700001E-03    1.0000001E-24
 -4.1350001E-03    1.0000004E-24
 -4.1000000E-03    1.0000004E-24
 -4.0650000E-03    1.0000000E-24
 -4.0300000E-03    9.9999953E-25
 -3.9949999E-03    9.9999972E-25
 -3.9599999E-03    1.0000001E-24
 -3.9249999E-03    1.0000000E-24
 -3.8900001E-03    9.9999992E-25
 -3.8550000E-03    1.0000000E-24
 -3.8200000E-03    1.0000003E-24
 -3.7849999E-03    1.0000005E-24
 -3.7499999E-03    1.0000001E-24
 -3.7150001E-03    9.9999972E-25
 -3.6800001E-03    9.9999982E-25
 -3.6450000E-03    1.0000003E-24
 -3.6100000E-03    1.0000004E-24
 -3.5750000E-03    1.0000000E-24
 -3.5399999E-03    9.9999972E-25
 -3.5049999E-03    9.9999992E-25
 -3.4700001E-03    9.9999992E-25
 -3.4350001E-03    9.9999992E-25
 -3.4000000E-03    1.0000000E-24
 -3.3650000E-03    1.0000003E-24
 -3.3300000E-03    1.0000011E-24
 -3.2949999E-03    1.0000005E-24
 -3.2599999E-03    9.9999923E-25
 -3.2250001E-03    9.9999953E-25
 -3.1900001E-03    1.0000007E-24
 -3.1550000E-03    9.9999992E-25
 -3.1200000E-03    9.9999893E-25
 -3.0850000E-03    1.0000005E-24
 -3.0499999E-03    1.0000012E-24
 -3.0149999E-03    9.9999953E-25
 -2.9800001E-03    9.9999953E-25
 -2.9450001E-03    1.0000012E-24
 -2.9100000E-03    1.0000005E-24
 -2.8750000E-03    9.9999913E-25
 -2.8400000E-03    1.0000003E-24
 -2.8049999E-03    1.0000008E-24
 -2.7699999E-03    9.9999923E-25
 -2.7350001E-03    9.9999933E-25
 -2.7000001E-03    1.0000008E-24
 -2.6650000E-03    1.0000002E-24
 -2.6300000E-03    9.9999884E-25
 -2.5950000E-03    1.0000001E-24
 -2.5599999E-03    1.0000013E-24
 -2.5249999E-03    1.0000003E-24
 -2.4900001E-03    9.9999953E-25
 -2.4550001E-03    1.0000000E-24
 -2.4200000E-03    1.0000002E-24
 -2.3850000E-03    1.0000004E-24
 -2.3500000E-03    1.0000010E-24
 -2.3149999E-03    1.0000003E-24
 -2.2799999E-03    9.9999874E-25
 -2.2450001E-03    9.9999884E-25
 -2.2100001E-03    1.0000007E-24
 -2.1750000E-03    1.0000004E-24
 -2.1400000E-03    9.9999913E-25
 -2.1050000E-03    1.0000001E-24
 -2.0699999E-03    1.0000017E-24
 -2.0349999E-03    1.0000007E-24
 -2.0000001E-03    9.9999933E-25
 -1.9650001E-03    9.9999972E-25
 -1.9300000E-03    1.0000001E-24
 -1.8950000E-03    9.9999943E-25
 -1.8600000E-03    9.9999992E-25
 -1.8250000E-03    1.0000008E-24
 -1.7900000E-03    1.0000006E-24
 -1.7550000E-03    1.0000006E-24
 -1.7199999E-03    1.0000008E-24
 -1.6850000E-03    9.9999972E-25
 -1.6500000E-03    9.9999854E-25
 -1.6150000E-03    9.9999963E-25
 -1.5800000E-03    1.0000010E-24
 -1.5450000E-03    1.0000004E-24
 -1.5100000E-03    9.9999943E-25
 -1.4750001E-03    9.9999982E-25
 -1.4400000E-03    1.0000005E-24
 -1.4050000E-03    1.0000003E-24
 -1.3700000E-03    9.9999933E-25
 -1.3350000E-03    9.9999943E-25
 -1.3000000E-03    1.0000006E-24
 -1.2650000E-03    1.0000011E-24
 -1.2300001E-03    9.9999923E-25
 -1.1950000E-03    9.9999844E-25
 -1.1600000E-03    1.0000006E-24
 -1.1250000E-03    1.0000014E-24
 -1.0900000E-03    9.9999933E-25
 -1.0550000E-03    1.0000000E-24
 -1.0200000E-03    1.0000025E-24
 -9.8500005E-04    1.0000010E-24
 -9.5000002E-04    9.9999824E-25
 -9.1499998E-04    9.9999884E-25
 -8.8000001E-04    1.0000005E-24
 -8.4499997E-04    1.0000003E-24
 -8.1000000E-04    9.9999992E-25
 -7.7500002E-04    1.0000001E-24
 -7.3999999E-04    1.0000003E-24
 -7.0500001E-04    1.0000002E-24
 -6.6999998E-04    1.0000004E-24
 -6.3500000E-04    9.9999982E-25
 -6.0000003E-04    9.9999953E-25
 -5.6499999E-04    1.0000003E-24
 -5.3000002E-04    1.0000009E-24
 -4.9499999E-04    9.9999992E-25
 -4.6000001E-04    9.9999913E-25
 -4.2500001E-04    1.0000004E-24
 -3.9000000E-04    1.0000010E-24
 -3.5500000E-04    9.9999992E-25
 -3.1999999E-04    9.9999972E-25
 -2.8499999E-04    1.0000000E-24
 -2.5000001E-04    9.9999982E-25
 -2.1499999E-04    9.9999992E-25
 -1.8000000E-04    1.0000004E-24
 -1.4500000E-04    1.0000005E-24
 -1.1000000E-04    1.0000003E-24
 -7.5000004E-05    1.0000007E-24
 -3.9999999E-05    1.0000011E-24
 -4.9999999E-06    9.9999982E-25
  2.9999999E-05    9.9999815E-25
  6.5000000E-05    9.9999953E-25
  9.9999997E-05    1.0000013E-24
  1.3499999E-04    1.0000002E-24
  1.7000000E-04    9.9999913E-25
  2.0500000E-04    1.0000002E-24
  2.3999999E-04    1.0000004E-24
  2.7500000E-04    9.9999864E-25
  3.1000000E-04    9.9999933E-25
  3.4500001E-04    1.0000017E-24
  3.8000001E-04    1.0000011E-24
  4.1499999E-04    9.9999953E-25
  4.4999999E-04    1.0000003E-24
  4.8500000E-04    1.0000006E-24
  5.2000000E-04    9.9999972E-25
  5.5499998E-04    9.9999972E-25
  5.9000001E-04    1.0000002E-24
  6.2499999E-04    1.0000003E-24
  6.6000002E-04    1.0000004E-24
  6.9500000E-04    1.0000001E-24
  7.3000003E-04    9.9999923E-25
  7.6500000E-04    9.9999923E-25
  7.9999998E-04    9.9999943E-25
  8.3500001E-04    9.9999992E-25
  8.6999999E-04    1.0000011E-24
  9.0500002E-04    1.0000012E-24
  9.4000000E-04    9.9999963E-25
  9.7499997E-04    9.9999913E-25
  1.0100000E-03    1.0000002E-24
  1.0450000E-03    9.9999992E-25
  1.0800000E-03    9.9999913E-25
  1.1150000E-03    1.0000002E-24
  1.1500000E-03    1.0000013E-24
  1.1849999E-03    1.0000000E-24
  1.2200000E-03    9.9999864E-25
  1.2550000E-03    9.9999903E-25
  1.2900000E-03    1.0000005E-24
  1.3250000E-03    1.0000013E-24
  1.3600000E-03    1.0000009E-24
  1.3950000E-03    1.0000003E-24
  1.4299999E-03    1.0000007E-24
  1.4650000E-03    1.0000002E-24
  1.5000000E-03    9.9999943E-25
  1.5350000E-03    1.0000003E-24
  1.5700000E-03    1.0000011E-24
  1.6050000E-03    9.9999953E-25
  1.6400000E-03    9.9999844E-25
  1.6749999E-03    9.9999943E-25
  1.7100000E-03    9.9999982E-25
  1.7450000E-03    9.9999953E-25
  1.7800000E-03    1.0000006E-24
  1.8150000E-03    1.0000010E-24
  1.8500000E-03    1.0000007E-24
  1.8850000E-03    1.0000005E-24
  1.9200000E-03    9.9999933E-25
  1.9550000E-03    9.9999854E-25
  1.9900000E-03    9.9999953E-25
  2.0250001E-03    1.0000002E-24
  2.0600001E-03    1.0000003E-24
  2.0949999E-03    1.0000012E-24
  2.1299999E-03    1.0000010E-24
  2.1650000E-03    1.0000006E-24
  2.2000000E-03    1.0000007E-24
  2.2350000E-03    9.9999913E-25
  2.2700001E-03    9.9999815E-25
  2.3050001E-03    1.0000001E-24
  2.3399999E-03    1.0000008E-24
  2.3749999E-03    9.9999992E-25
  2.4100000E-03    1.0000011E-24
  2.4450000E-03    1.0000011E-24
  2.4800000E-03    9.9999854E-25
  2.5150001E-03    9.9999864E-25
  2.5500001E-03    1.0000007E-24
  2.5849999E-03    1.0000005E-24
  2.6199999E-03    1.0000009E-24
  2.6550000E-03    1.0000018E-24
  2.6900000E-03    9.9999943E-25
  2.7250000E-03    9.9999726E-25
  2.7600001E-03    1.0000000E-24
  2.7950001E-03    1.0000024E-24
  2.8299999E-03    9.9999963E-25
  2.8649999E-03    9.9999824E-25
  2.9000000E-03    1.0000019E-24
  2.9350000E-03    1.0000029E-24
  2.9700000E-03    9.9999874E-25
  3.0050001E-03    9.9999765E-25
  3.0400001E-03    1.0000017E-24
  3.0749999E-03    1.0000021E-24
  3.1099999E-03    9.9999903E-25
  3.1450000E-03    9.9999992E-25
  3.1800000E-03    1.0000014E-24
  3.2150000E-03    9.9999953E-25
  3.2500001E-03    9.9999805E-25
  3.2850001E-03    9.9999943E-25
  3.3199999E-03    1.0000006E-24
  3.3549999E-03    1.0000002E-24
  3.3900000E-03    1.0000006E-24
  3.4250000E-03    1.0000014E-24
  3.4600000E-03    9.9999982E-25
  3.4950001E-03    9.9999775E-25
  3.5300001E-03    9.9999972E-25
  3.5649999E-03    1.0000025E-24
  3.5999999E-03    1.0000006E-24
  3.6350000E-03    9.9999884E-25
  3.6700000E-03    1.0000008E-24
  3.7050000E-03    1.0000012E-24
  3.7400001E-03    9.9999913E-25
  3.7750001E-03    9.9999884E-25
  3.8099999E-03    9.9999953E-25
  3.8449999E-03    9.9999982E-25
  3.8800000E-03    1.0000009E-24
  3.9149998E-03    1.0000009E-24
  3.9499998E-03    9.9999933E-25
  3.9849998E-03    9.9999864E-25
  4.0199999E-03    9.9999963E-25
  4.0549999E-03    1.0000005E-24
  4.0899999E-03    1.0000010E-24
  4.1250000E-03    1.0000009E-24
  4.1600000E-03    1.0000004E-24
  4.1950000E-03    1.0000010E-24
  4.2300001E-03    9.9999963E-25
  4.2650001E-03    9.9999677E-25
  4.3000001E-03    9.9999824E-25
  4.3350002E-03    1.0000031E-24
  4.3700002E-03    1.0000026E-24
  4.4049998E-03    9.9999824E-25
  4.4399998E-03    9.9999815E-25
  4.4749998E-03    1.0000002E-24
  4.5099999E-03    9.9999903E-25
  4.5449999E-03    9.9999884E-25
  4.5799999E-03    1.0000016E-24
  4.6150000E-03    1.0000024E-24
  4.6500000E-03    1.0000019E-24
  4.6850001E-03    1.0000006E-24
  4.7200001E-03    9.9999844E-25
  4.7550001E-03    9.9999824E-25
  4.7900002E-03    1.0000007E-24
  4.8250002E-03    1.0000018E-24
  4.8600002E-03    1.0000001E-24
  4.8949998E-03    9.9999953E-25
  4.9299998E-03    1.0000006E-24
  4.9649999E-03    1.0000004E-24
  4.9999999E-03    9.9999913E-25
  5.0349999E-03    9.9999874E-25
  5.0700000E-03    1.0000006E-24
  5.1050000E-03    1.0000018E-24
  5.1400000E-03    1.0000002E-24
  5.1750001E-03    9.9999903E-25
  5.2100001E-03    9.9999982E-25
  5.2450001E-03    9.9999933E-25
  5.2800002E-03    9.9999834E-25
  5.3150002E-03    1.0000003E-24
  5.3500002E-03    1.0000025E-24
  5.3849998E-03    1.0000015E-24
  5.4199998E-03    9.9999982E-25
  5.4549999E-03    1.0000005E-24
  5.4899999E-03    1.0000008E-24
  5.5249999E-03    9.9999815E-25
  5.5600000E-03    9.9999696E-25
  5.5950000E-03    1.0000017E-24
  5.6300000E-03    1.0000045E-24
  5.6650001E-03    9.9999982E-25
  5.7000001E-03    9.9999716E-25
  5.7350001E-03    1.0000014E-24
  5.7700002E-03    1.0000021E-24
  5.8050002E-03    9.9999726E-25
  5.8400002E-03    9.9999815E-25
  5.8749998E-03    1.0000031E-24
  5.9099998E-03    1.0000011E-24
  5.9449999E-03    9.9999677E-25
  5.9799999E-03    9.9999913E-25
  6.0149999E-03    1.0000025E-24
  6.0500000E-03    9.9999972E-25
  6.0850000E-03    9.9999795E-25
  6.1200000E-03    1.0000016E-24
  6.1550001E-03    1.0000029E-24
  6.1900001E-03    9.9999864E-25
  6.2250001E-03    9.9999686E-25
  6.2600002E-03    1.0000012E-24
  6.2950002E-03    1.0000014E-24
  6.3299998E-03    9.9999361E-25
  6.3649998E-03    9.9998996E-25
  6.3999998E-03    1.0000069E-24
  6.4349999E-03    1.0000143E-24
  6.4699999E-03    9.9999055E-25
  6.5049999E-03    9.9999223E-25
  6.5400000E-03    1.0000145E-24
  6.5750000E-03    1.0000372E-24
  6.6100000E-03    1.0000314E-24
  6.6450001E-03    1.0000267E-24
  6.6800001E-03    1.0000028E-24
  6.7150001E-03    9.9996255E-25
  6.7500002E-03    9.9995367E-25
  6.7850002E-03    9.9997675E-25
  6.8199998E-03    9.9988445E-25
  6.8549998E-03    9.9995653E-25
  6.8899998E-03    1.0001927E-24
  6.9249999E-03    1.0000493E-24
  6.9599999E-03    9.9970213E-25
  6.9949999E-03    9.9985280E-25
  7.0300000E-03    1.0002497E-24
  7.0650000E-03    1.0001893E-24
  7.1000000E-03    1.0002269E-24
  7.1350001E-03    1.0000306E-24
  7.1700001E-03    9.9886643E-25
  7.2050001E-03    1.0001780E-24
  7.2400002E-03    1.0003888E-24
  7.2750002E-03    9.9870708E-25
  7.3099998E-03    9.9642332E-25
  7.3449998E-03    1.0005995E-24
  7.3799998E-03    1.0013500E-24
  7.4149999E-03    9.9987242E-25
  7.4499999E-03    9.9785166E-25
  7.4850000E-03    9.9939595E-25
  7.5200000E-03    1.0050553E-24
  7.5550000E-03    1.0060725E-24
  7.5900001E-03    1.0068604E-24
  7.6250001E-03    1.0033808E-24
  7.6600001E-03    1.0010314E-24
  7.6950002E-03    1.0008144E-24
  7.7300002E-03    9.9124120E-25
  7.7650002E-03    1.0097351E-24
  7.7999998E-03    1.0085734E-24
  7.8349998E-03    9.9930148E-25
  7.8699999E-03    1.0415922E-24
  7.9049999E-03    1.0283887E-24
  7.9399999E-03    1.0316394E-24
  7.9750000E-03    1.0464349E-24
  8.0100000E-03    9.2981674E-25
  8.0450000E-03    9.1496367E-25
  8.0800001E-03    1.0823958E-24
  8.1150001E-03    1.0076722E-24
  8.1500001E-03    9.2513811E-25
  8.1850002E-03    8.2078004E-25
  8.2200002E-03    7.3496889E-25
  8.2550002E-03    1.0389383E-24
  8.2900003E-03    1.0490424E-24
  8.3250003E-03    8.1433411E-25
  8.3600003E-03    3.9356179E-25
  8.3950004E-03    1.0924536E-24
  8.4300004E-03    1.0726165E-24
  8.4650004E-03    2.3552796E-25
  8.5000005E-03    4.0711203E-25
  8.5349996E-03    1.7515741E-24
  8.5699996E-03    7.2669102E-25
  8.6049996E-03   -1.0290414E-24
  8.6399997E-03    1.4891832E-24
  8.6749997E-03    1.5463288E-24
  8.7099997E-03    2.7458822E-24
  8.7449998E-03    1.7318272E-24
  8.7799998E-03    1.1408874E-25
  8.8149998E-03    1.6411571E-24
  8.8499999E-03   -1.2004549E-24
  8.8849999E-03   -5.2271032E-24
  8.9199999E-03    2.8084353E-24
  8.9550000E-03    9.0573144E-24
  8.9900000E-03    4.2178247E-24
  9.0250000E-03   -1.2113616E-23
  9.0600001E-03    5.0532763E-25
  9.0950001E-03    2.1587617E-23
  9.1300001E-03   -2.2682332E-23
  9.1650002E-03   -1.8599702E-23
  9.2000002E-03   -1.9309858E-24
  9.2350002E-03    3.5007583E-23
  9.2700003E-03   -5.2565092E-24
  9.3050003E-03   -6.6443002E-23
  9.3400003E-03   -1.8556394E-23
  9.3750004E-03    4.8403164E-23
  9.4100004E-03    6.3938678E-23
  9.4450004E-03   -3.2339700E-23
  9.4799995E-03   -1.0600739E-22
  9.5149996E-03   -3.7283160E-23
  9.5499996E-03    1.4624633E-22
  9.5849996E-03    1.5743745E-22
  9.6199997E-03    3.2288112E-23
  9.6549997E-03   -1.6904319E-22
  9.6899997E-03    2.9076216E-22
  9.7249998E-03    5.7498317E-22
  9.7599998E-03    4.8415331E-23
  9.7949998E-03   -8.3418600E-22
  9.8299999E-03   -4.8740714E-22
  9.8649999E-03    1.1831699E-21
  9.8999999E-03    8.9788335E-22
  9.9350000E-03   -1.7233385E-21
  9.9700000E-03   -1.9779579E-21
  1.0005000E-02    1.1290984E-21
  1.0040000E-02    1.6220569E-21
  1.0075000E-02   -1.1174187E-21
  1.0110000E-02   -2.6716934E-21
  1.0145000E-02    7.9246972E-23
  1.0180000E-02    3.9172673E-21
  1.0215000E-02    1.5041362E-21
  1.0250000E-02   -3.2878390E-21
  1.0285000E-02   -2.7899528E-21
  1.0320000E-02    3.6548143E-21
  1.0355000E-02    4.8289928E-21
  1.0390000E-02   -3.9465231E-21
  1.0425000E-02   -7.6871550E-21
  1.0460000E-02    2.0166051E-21
  1.0495000E-02    9.1428087E-21
  1.0530000E-02    3.9221863E-21
  1.0565000E-02   -1.2011183E-20
  1.0600000E-02   -1.7373635E-20
  1.0635000E-02    1.2298934E-20
  1.0670000E-02    3.2859669E-20
  1.0705000E-02    6.7709972E-21
  1.0740000E-02   -4.0598283E-20
  1.0775000E-02   -1.4105127E-20
  1.0810000E-02    5.2201960E-20
  1.0845000E-02    2.0732364E-20
  1.0880000E-02   -6.7376769E-20
  1.0915000E-02   -4.3638068E-20
  1.0950000E-02    5.9604347E-20
  1.0985000E-02    7.0924178E-20
  1.1020000E-02   -3.0141638E-20
  1.1055000E-02   -9.5102209E-20
  1.1090000E-02    4.0861301E-20
  1.1125000E-02    1.3577692E-19
  1.1160000E-02    1.9872392E-20
  1.1195000E-02   -1.9060719E-19
  1.1230000E-02   -8.8010886E-20
  1.1265000E-02    2.3616348E-19
  1.1300000E-02    2.1458192E-19
  1.1335000E-02   -1.4921696E-19
  1.1370000E-02   -3.3250277E-19
  1.1405000E-02    6.4606134E-20
  1.1440000E-02    5.2675316E-19
  1.1475000E-02    9.7894900E-20
  1.1510000E-02   -6.7488338E-19
  1.1545000E-02   -3.9273429E-19
  1.1580000E-02    5.8159136E-19
  1.1615000E-02    5.1185833E-19
  1.1650000E-02   -5.0180509E-19
  1.1685000E-02   -8.6525729E-19
  1.1720000E-02    3.9551830E-19
  1.1755000E-02    1.2834288E-18
  1.1790000E-02    1.1415500E-19
  1.1825000E-02   -1.6196032E-18
  1.1860000E-02   -6.5863155E-19
  1.1895000E-02    1.6583837E-18
  1.1930000E-02    1.2211138E-18
  1.1965000E-02   -1.5405136E-18
  1.2000000E-02   -2.2468109E-18
  1.2035000E-02    1.5313451E-18
  1.2070000E-02    2.5529422E-18
  1.2105000E-02   -1.0101936E-18
  1.2140000E-02   -3.8436022E-18
  1.2175000E-02    1.8727139E-19
  1.2210000E-02    5.3417591E-18
  1.2245000E-02    1.5270494E-18
  1.2280000E-02   -6.2681154E-18
  1.2315000E-02   -3.5196465E-18
  1.2350000E-02    6.1742345E-18
  1.2385000E-02    5.8925518E-18
  1.2420000E-02   -4.6104293E-18
  1.2455000E-02   -8.8304467E-18
  1.2490000E-02    4.6354143E-18
  1.2525000E-02    1.3682414E-17
  1.2560000E-02   -9.1780869E-19
  1.2595000E-02   -1.5419782E-17
  1.2630000E-02   -4.2818562E-18
  1.2665000E-02    1.8214798E-17
  1.2700000E-02    1.0865283E-17
  1.2735000E-02   -1.7331818E-17
  1.2770000E-02   -2.0108455E-17
  1.2805000E-02    1.4825477E-17
  1.2840000E-02    2.9611028E-17
  1.2875000E-02   -8.8814986E-18
  1.2910000E-02   -4.3148054E-17
  1.2945000E-02    1.1397048E-18
  1.2980000E-02    5.2004157E-17
  1.3015000E-02    1.3526260E-17
  1.3050000E-02   -6.0637765E-17
  1.3085000E-02   -3.9382856E-17
  1.3120000E-02    5.9430267E-17
  1.3155000E-02    7.0247533E-17
  1.3190000E-02   -4.5013306E-17
  1.3225000E-02   -1.0108978E-16
  1.3260000E-02    2.2149710E-17
  1.3295000E-02    1.4246845E-16
  1.3330000E-02    2.3321270E-17
  1.3365000E-02   -1.7582046E-16
  1.3400000E-02   -8.6618449E-17
  1.3435000E-02    1.9971617E-16
  1.3470000E-02    1.8496963E-16
  1.3505000E-02   -1.8059150E-16
  1.3540000E-02   -2.8604742E-16
  1.3575000E-02    1.3506136E-16
  1.3610000E-02    3.9937860E-16
  1.3645000E-02   -2.4896148E-17
  1.3680000E-02   -4.7651824E-16
  1.3715000E-02   -1.4406989E-16
  1.3750000E-02    5.3062358E-16
  1.3785000E-02    3.7102200E-16
  1.3820000E-02   -5.4258077E-16
  1.3855000E-02   -6.6796944E-16
  1.3890000E-02    4.3384339E-16
  1.3925000E-02    9.7802670E-16
  1.3960000E-02   -1.8951760E-16
  1.3995000E-02   -1.2587896E-15
  1.4030000E-02   -2.2135749E-16
  1.4065000E-02    1.4361424E-15
  1.4100000E-02    7.7724479E-16
  1.4135000E-02   -1.4583122E-15
  1.4170000E-02   -1.4731745E-15
  1.4205000E-02    1.2513407E-15
  1.4240000E-02    2.2246890E-15
  1.4275000E-02   -7.2973376E-16
  1.4310000E-02   -2.9939870E-15
  1.4345000E-02   -2.2906773E-16
  1.4380000E-02    3.5586298E-15
  1.4415000E-02    1.5903609E-15
  1.4450000E-02   -3.7504645E-15
  1.4485000E-02   -3.2848696E-15
  1.4520000E-02    3.3636809E-15
  1.4555000E-02    5.1216783E-15
  1.4590000E-02   -2.2613137E-15
  1.4625000E-02   -6.9070086E-15
  1.4660000E-02    2.8125118E-16
  1.4695000E-02    8.3812131E-15
  1.4730000E-02    2.6778297E-15
  1.4765000E-02   -9.0525604E-15
  1.4800000E-02   -6.4504032E-15
  1.4835000E-02    8.4472876E-15
  1.4870000E-02    1.0625844E-14
  1.4905000E-02   -6.2521937E-15
  1.4940000E-02   -1.4850659E-14
  1.4975000E-02    2.0946574E-15
  1.5010000E-02    1.8376156E-14
  1.5045000E-02    4.0809654E-15
  1.5080000E-02   -2.0400114E-14
  1.5115000E-02   -1.2150588E-14
  1.5150000E-02    1.9798474E-14
  1.5185000E-02    2.1457898E-14
  1.5220000E-02   -1.5761598E-14
  1.5255000E-02   -3.1049572E-14
  1.5290000E-02    7.3722436E-15
  1.5325000E-02    3.9245642E-14
  1.5360000E-02    5.5192057E-15
  1.5395000E-02   -4.4286870E-14
  1.5430000E-02   -2.2655138E-14
  1.5465000E-02    4.3975728E-14
  1.5500000E-02    4.2681679E-14
  1.5535000E-02   -3.6313136E-14
  1.5570000E-02   -6.3534817E-14
  1.5605000E-02    1.9499862E-14
  1.5640000E-02    8.1753804E-14
  1.5675001E-02    6.9079747E-15
  1.5710000E-02   -9.3454514E-14
  1.5745001E-02   -4.2307022E-14
  1.5780000E-02    9.3987460E-14
  1.5814999E-02    8.3917892E-14
  1.5850000E-02   -7.9116570E-14
  1.5884999E-02   -1.2702201E-13
  1.5920000E-02    4.5493269E-14
  1.5954999E-02    1.6465250E-13
  1.5990000E-02    7.9280675E-15
  1.6024999E-02   -1.8817706E-13
  1.6060000E-02   -7.8887356E-14
  1.6094999E-02    1.8846293E-13
  1.6130000E-02    1.6130580E-13
  1.6164999E-02   -1.5723745E-13
  1.6200000E-02   -2.4474747E-13
  1.6235000E-02    8.8985290E-14
  1.6270000E-02    3.1484328E-13
  1.6305000E-02    1.6910135E-14
  1.6340001E-02   -3.5469140E-13
  1.6375000E-02   -1.5447065E-13
  1.6410001E-02    3.4695250E-13
  1.6445000E-02    3.0957940E-13
  1.6480001E-02   -2.7762631E-13
  1.6515000E-02   -4.6043990E-13
  1.6550001E-02    1.3918837E-13
  1.6585000E-02    5.7882930E-13
  1.6620001E-02    6.5332668E-14
  1.6655000E-02   -6.3367107E-13
  1.6690001E-02   -3.1968257E-13
  1.6725000E-02    5.9624116E-13
  1.6759999E-02    5.9383032E-13
  1.6795000E-02   -4.4584562E-13
  1.6829999E-02   -8.4479743E-13
  1.6865000E-02    1.7689513E-13
  1.6899999E-02    1.0218093E-12
  1.6935000E-02    1.9647741E-13
  1.6969999E-02   -1.0727644E-12
  1.7005000E-02   -6.3631554E-13
  1.7039999E-02    9.5493470E-13
  1.7075000E-02    1.0826291E-12
  1.7109999E-02   -6.4461094E-13
  1.7145000E-02   -1.4578730E-12
  1.7180000E-02    1.4731807E-13
  1.7215000E-02    1.6774770E-12
  1.7250000E-02    4.9619716E-13
  1.7285001E-02   -1.6632378E-12
  1.7320000E-02   -1.2075168E-12
  1.7355001E-02    1.3602492E-12
  1.7390000E-02    1.8767425E-12
  1.7425001E-02   -7.5258533E-13
  1.7460000E-02   -2.3745630E-12
  1.7495001E-02   -1.2374140E-13
  1.7530000E-02    2.5720862E-12
  1.7565001E-02    1.1756230E-12
  1.7600000E-02   -2.3641360E-12
  1.7635001E-02   -2.2558567E-12
  1.7670000E-02    1.6950496E-12
  1.7704999E-02    3.1781509E-12
  1.7740000E-02   -5.8008866E-13
  1.7774999E-02   -3.7421559E-12
  1.7810000E-02   -8.8070323E-13
  1.7844999E-02    3.7671485E-12
  1.7880000E-02    2.5013683E-12
  1.7914999E-02   -3.1303714E-12
  1.7950000E-02   -4.0252324E-12
  1.7984999E-02    1.8028241E-12
  1.8020000E-02    5.1565067E-12
  1.8054999E-02    1.2460516E-13
  1.8090000E-02   -5.6056696E-12
  1.8124999E-02   -2.4302077E-12
  1.8160000E-02    5.1460680E-12
  1.8195000E-02    4.7745709E-12
  1.8230001E-02   -3.6691821E-12
  1.8265000E-02   -6.7370085E-12
  1.8300001E-02    1.2330107E-12
  1.8335000E-02    7.8786595E-12
  1.8370001E-02    1.9138421E-12
  1.8405000E-02   -7.8210979E-12
  1.8440001E-02   -5.3380612E-12
  1.8475000E-02    6.3308135E-12
  1.8510001E-02    8.4638529E-12
  1.8545000E-02   -3.3959873E-12
  1.8580001E-02   -1.0654852E-11
  1.8615000E-02   -7.2702928E-13
  1.8650001E-02    1.1322019E-11
  1.8685000E-02    5.5065514E-12
  1.8719999E-02   -1.0048189E-11
  1.8755000E-02   -1.0185193E-11
  1.8789999E-02    6.7002172E-12
  1.8825000E-02    1.3880794E-11
  1.8859999E-02   -1.5092771E-12
  1.8895000E-02   -1.5733909E-11
  1.8929999E-02   -4.9079603E-12
  1.8965000E-02    1.5075483E-11
  1.8999999E-02    1.1598250E-11
  1.9035000E-02   -1.1589502E-11
  1.9069999E-02   -1.7398223E-11
  1.9105000E-02    5.4320702E-12
  1.9140000E-02    2.1123294E-11
  1.9175000E-02    2.7242594E-12
  1.9210000E-02   -2.1788935E-11
  1.9245001E-02   -1.1738959E-11
  1.9280000E-02    1.8829051E-11
  1.9315001E-02    2.0154238E-11
  1.9350000E-02   -1.2259812E-11
  1.9385001E-02   -2.6426398E-11
  1.9420000E-02    2.7531718E-12
  1.9455001E-02    2.9204885E-11
  1.9490000E-02    8.4089923E-12
  1.9525001E-02   -2.7607701E-11
  1.9560000E-02   -1.9507835E-11
  1.9595001E-02    2.1432123E-11
  1.9630000E-02    2.8660652E-11
  1.9664999E-02   -1.1253866E-11
  1.9700000E-02   -3.4150027E-11
  1.9734999E-02   -1.6167824E-12
  1.9770000E-02    3.4743656E-11
  1.9804999E-02    1.5322896E-11
  1.9840000E-02   -2.9935953E-11
  1.9874999E-02   -2.7753687E-11
  1.9910000E-02    2.0069172E-11
  1.9944999E-02    3.6895362E-11
  1.9980000E-02   -6.3016406E-12
  2.0014999E-02   -4.1166157E-11
  2.0050000E-02   -9.5627091E-12
  2.0085000E-02    3.9680710E-11
  2.0120000E-02    2.5357206E-11
  2.0155000E-02   -3.2388130E-11
  2.0190001E-02   -3.8881530E-11
  2.0225000E-02    2.0073545E-11
  2.0260001E-02    4.8213936E-11
  2.0295000E-02   -4.2477727E-12
  2.0330001E-02   -5.1973117E-11
  2.0365000E-02   -1.3047289E-11
  2.0400001E-02    4.9512068E-11
  2.0435000E-02    2.9499160E-11
  2.0470001E-02   -4.1025232E-11
  2.0505000E-02   -4.2824612E-11
  2.0540001E-02    2.7554783E-11
  2.0575000E-02    5.1076574E-11
  2.0609999E-02   -1.0894039E-11
  2.0645000E-02   -5.2933120E-11
  2.0679999E-02   -6.6095554E-12
  2.0715000E-02    4.7949207E-11
  2.0749999E-02    2.2368760E-11
  2.0785000E-02   -3.6704428E-11
  2.0819999E-02   -3.3971690E-11
  2.0855000E-02    2.0787505E-11
  2.0889999E-02    3.9617521E-11
  2.0925000E-02   -2.5804575E-12
  2.0959999E-02   -3.8500345E-11
  2.0995000E-02   -1.5152830E-11
  2.1029999E-02    3.1044615E-11
  2.1065000E-02    2.9832241E-11
  2.1100000E-02   -1.8852461E-11
  2.1135001E-02   -3.9638900E-11
  2.1170000E-02    4.3266211E-12
  2.1205001E-02    4.3901830E-11
  2.1240000E-02    9.9059389E-12
  2.1275001E-02   -4.3177462E-11
  2.1310000E-02   -2.1558283E-11
  2.1345001E-02    3.9139955E-11
  2.1380000E-02    2.9280432E-11
  2.1415001E-02   -3.4062489E-11
  2.1450000E-02   -3.2937795E-11
  2.1485001E-02    3.0160364E-11
  2.1520000E-02    3.3598589E-11
  2.1555001E-02   -2.8915694E-11
  2.1590000E-02   -3.3172989E-11
  2.1624999E-02    3.0622775E-11
  2.1660000E-02    3.3696233E-11
  2.1694999E-02   -3.4240877E-11
  2.1730000E-02   -3.6650592E-11
  2.1764999E-02    3.7883540E-11
  2.1800000E-02    4.2476512E-11
  2.1834999E-02   -3.9240129E-11
  2.1870000E-02   -5.0580543E-11
  2.1904999E-02    3.5762379E-11
  2.1940000E-02    5.8573875E-11
  2.1974999E-02   -2.6623141E-11
  2.2010000E-02   -6.3234099E-11
  2.2045000E-02    1.2247141E-11
  2.2080000E-02    6.1256153E-11
  2.2115000E-02    4.8247916E-12
  2.2150001E-02   -4.9313772E-11
  2.2185000E-02   -2.0632175E-11
  2.2220001E-02    2.7841040E-11
  2.2255000E-02    3.1226438E-11
  2.2290001E-02    1.8784774E-12
  2.2325000E-02   -3.2805911E-11
  2.2360001E-02   -3.5555704E-11
  2.2395000E-02    2.3508693E-11
  2.2430001E-02    6.8268100E-11
  2.2465000E-02   -2.3159905E-12
  2.2500001E-02   -9.4601472E-11
  2.2535000E-02   -2.7439247E-11
  2.2569999E-02    1.1199951E-10
  2.2605000E-02    6.1695413E-11
  2.2639999E-02   -1.1826569E-10
  2.2675000E-02   -9.4496314E-11
  2.2709999E-02    1.1486979E-10
  2.2745000E-02    1.2198702E-10
  2.2779999E-02   -1.0319156E-10
  2.2815000E-02   -1.4598966E-10
  2.2849999E-02    8.2912996E-11
  2.2885000E-02    1.5697076E-10
  2.2919999E-02   -6.4181403E-11
  2.2955000E-02   -1.5900913E-10
  2.2990000E-02    4.7698463E-11
  2.3025000E-02    1.5489264E-10
  2.3060000E-02   -3.1904628E-11
  2.3095001E-02   -1.4262959E-10
  2.3130000E-02    1.9089367E-11
  2.3165001E-02    1.2597337E-10
  2.3200000E-02   -8.9010315E-13
  2.3235001E-02   -9.5040177E-11
  2.3270000E-02   -1.6761736E-11
  2.3305001E-02    4.2340954E-11
  2.3340000E-02    1.7184382E-11
  2.3375001E-02    6.0445256E-12
  2.3410000E-02   -6.9871517E-12
  2.3445001E-02   -5.7790821E-11
  2.3480000E-02   -1.5355918E-11
  2.3514999E-02    1.3275432E-10
  2.3550000E-02    7.7084533E-11
  2.3584999E-02   -1.8818203E-10
  2.3620000E-02   -1.7967222E-10
  2.3654999E-02    1.9523017E-10
  2.3690000E-02    2.6426203E-10
  2.3724999E-02   -1.7694685E-10
  2.3760000E-02   -3.2670322E-10
  2.3794999E-02    1.2999474E-10
  2.3830000E-02    3.1762312E-10
  2.3864999E-02   -8.8372795E-11
  2.3900000E-02   -2.4355598E-10
  2.3934999E-02    6.5899300E-11
  2.3970000E-02    1.8259445E-10
  2.4005000E-02   -4.3670373E-11
  2.4040001E-02   -1.4929859E-10
  2.4075000E-02    7.3624188E-12
  2.4110001E-02    1.1833995E-10
  2.4145000E-02   -3.4690573E-11
  2.4180001E-02   -1.1488673E-10
  2.4215000E-02    6.6965017E-11
  2.4250001E-02    7.3888388E-11
  2.4285000E-02   -7.1174212E-11
  2.4320001E-02    1.0740323E-11
  2.4355000E-02    1.2859348E-10
  2.4390001E-02   -2.8168063E-11
  2.4425000E-02   -1.0046432E-10
  2.4460001E-02    8.0130312E-11
  2.4495000E-02    4.6357057E-11
  2.4529999E-02   -1.7180503E-10
  2.4565000E-02    5.4032703E-12
  2.4599999E-02    2.4325914E-10
  2.4635000E-02   -1.0810053E-11
  2.4669999E-02   -2.6627617E-10
  2.4705000E-02    3.3795057E-11
  2.4739999E-02    3.4318107E-10
  2.4775000E-02    1.2500032E-10
  2.4809999E-02   -3.0599454E-10
  2.4845000E-02   -4.0950826E-10
  2.4879999E-02    2.5021685E-10
  2.4915000E-02    6.0138866E-10
  2.4950000E-02   -3.4725717E-10
  2.4985000E-02   -9.0166491E-10
  2.5020000E-02    2.0806470E-10
  2.5055001E-02    7.1120548E-10
  2.5090000E-02   -2.7406008E-10
  2.5125001E-02   -4.8103832E-10
  2.5160000E-02    4.0317910E-10
  2.5195001E-02    3.5558423E-10
  2.5230000E-02   -4.3062670E-10
  2.5265001E-02   -3.2361486E-10
  2.5300000E-02    4.1024936E-10
  2.5335001E-02    1.2451273E-10
  2.5370000E-02   -1.3675025E-10
  2.5405001E-02    1.3242839E-10
  2.5440000E-02   -1.9155943E-10
  2.5474999E-02   -1.7019482E-10
  2.5510000E-02    4.6816190E-10
  2.5544999E-02    2.0385148E-10
  2.5580000E-02   -6.6210826E-10
  2.5614999E-02   -1.8067002E-10
  2.5650000E-02    6.5876271E-10
  2.5684999E-02    4.0976215E-11
  2.5720000E-02   -2.0542112E-10
  2.5754999E-02    1.7725037E-10
  2.5790000E-02   -7.4939666E-10
  2.5824999E-02   -1.6761222E-10
  2.5860000E-02    1.4292137E-09
  2.5895000E-02   -4.6397783E-10
  2.5930000E-02   -1.9814654E-09
  2.5965000E-02    6.5320171E-10
  2.6000001E-02    1.8914592E-09
  2.6035000E-02   -2.7210750E-10
  2.6070001E-02   -2.4132579E-10
  2.6105000E-02    5.9737371E-10
  2.6140001E-02   -6.2390243E-10
  2.6175000E-02   -6.0645072E-10
  2.6210001E-02    4.6094908E-10
  2.6245000E-02    3.9277542E-10
  2.6280001E-02    2.6098854E-10
  2.6315000E-02    4.0775464E-10
  2.6350001E-02   -5.6955951E-10
  2.6385000E-02   -9.8814168E-10
  2.6419999E-02   -6.6790573E-10
  2.6455000E-02   -1.8387026E-12
  2.6489999E-02    1.6347286E-09
  2.6525000E-02    1.4078408E-09
  2.6559999E-02   -1.8498720E-09
  2.6595000E-02   -2.0716944E-09
  2.6629999E-02    1.0970131E-09
  2.6665000E-02    1.4785068E-09
  2.6699999E-02   -8.4595358E-10
  2.6735000E-02   -1.1339889E-09
  2.6769999E-02    3.7422365E-10
  2.6805000E-02    5.6150989E-10
  2.6839999E-02   -8.6204943E-10
  2.6875000E-02   -1.1508933E-09
  2.6910000E-02    7.6656304E-10
  2.6945001E-02    1.4223238E-09
  2.6980000E-02   -3.6130002E-10