 -4.8000002E-03    1.0000000E-24
 -4.7650002E-03    1.0000002E-24
 -4.7300002E-03    1.0000001E-24
 -4.6950001E-03    1.0000000E-24
 -4.6600001E-03    1.0000003E-24
 -4.6250001E-03    1.0000002E-24
 -4.5900000E-03    1.0000000E-24
 -4.5550000E-03    1.0000002E-24
 -4.5200000E-03    9.9999992E-25
 -4.4849999E-03    1.0000000E-24
 -4.4499999E-03    1.0000002E-24
 -4.4149999E-03    1.0000001E-24
 -4.3799998E-03    9.9999953E-25
 -4.3449998E-03    9.9999992E-25
 -4.3100002E-03    1.0000007E-24
 -4.2750002E-03    1.0000001E-24
 -4.2400002E-03    9.9999982E-25
 -4.2050001E-03    1.0000005E-24
 -4.1700001E-03    1.0000004E-24
 -4.1350001E-03    9.9999943E-25
 -4.1000000E-03    9.9999963E-25
 -4.0650000E-03    1.0000003E-24
 -4.0300000E-03    1.0000000E-24
 -3.9949999E-03    9.9999972E-25
 -3.9599999E-03    1.0000003E-24
 -3.9249999E-03    1.0000005E-24
 -3.8900001E-03    9.9999963E-25
 -3.8550000E-03    9.9999982E-25
 -3.8200000E-03    1.0000004E-24
 -3.7849999E-03    1.0000002E-24
 -3.7499999E-03    9.9999972E-25
 -3.7150001E-03    1.0000004E-24
 -3.6800001E-03    1.0000007E-24
 -3.6450000E-03    9.9999972E-25
 -3.6100000E-03    9.9999953E-25
 -3.5750000E-03    1.0000000E-24
 -3.5399999E-03    9.9999992E-25
 -3.5049999E-03    9.9999982E-25
 -3.4700001E-03    1.0000007E-24
 -3.4350001E-03    1.0000005E-24
 -3.4000000E-03    9.9999992E-25
 -3.3650000E-03    9.9999992E-25
 -3.3300000E-03    1.0000001E-24
 -3.2949999E-03    9.9999963E-25
 -3.2599999E-03    9.9999992E-25
 -3.2250001E-03    1.0000005E-24
 -3.1900001E-03    1.0000004E-24
 -3.1550000E-03    9.9999972E-25
 -3.1200000E-03    9.9999982E-25
 -3.0850000E-03    1.0000004E-24
 -3.0499999E-03    1.0000002E-24
 -3.0149999E-03    9.9999963E-25
 -2.9800001E-03    9.9999992E-25
 -2.9450001E-03    1.0000006E-24
 -2.9100000E-03    1.0000002E-24
 -2.8750000E-03    9.9999953E-25
 -2.8400000E-03    1.0000002E-24
 -2.8049999E-03    1.0000006E-24
 -2.7699999E-03    9.9999992E-25
 -2.7350001E-03    9.9999992E-25
 -2.7000001E-03    1.0000004E-24
 -2.6650000E-03    1.0000003E-24
 -2.6300000E-03    9.9999982E-25
 -2.5950000E-03    1.0000000E-24
 -2.5599999E-03    1.0000002E-24
 -2.5249999E-03    9.9999953E-25
 -2.4900001E-03    9.9999943E-25
 -2.4550001E-03    1.0000005E-24
 -2.4200000E-03    1.0000007E-24
 -2.3850000E-03    1.0000005E-24
 -2.3500000E-03    1.0000000E-24
 -2.3149999E-03    9.9999953E-25
 -2.2799999E-03    9.9999913E-25
 -2.2450001E-03    9.9999943E-25
 -2.2100001E-03    1.0000002E-24
 -2.1750000E-03    1.0000009E-24
 -2.1400000E-03    1.0000007E-24
 -2.1050000E-03    9.9999992E-25
 -2.0699999E-03    1.0000001E-24
 -2.0349999E-03    1.0000007E-24
 -2.0000001E-03    9.9999963E-25
 -1.9650001E-03    9.9999913E-25
 -1.9300000E-03    1.0000004E-24
 -1.8950000E-03    1.0000003E-24
 -1.8600000E-03    9.9999943E-25
 -1.8250000E-03    1.0000000E-24
 -1.7900000E-03    1.0000008E-24
 -1.7550000E-03    1.0000005E-24
 -1.7199999E-03    9.9999972E-25
 -1.6850000E-03    1.0000001E-24
 -1.6500000E-03    1.0000006E-24
 -1.6150000E-03    9.9999953E-25
 -1.5800000E-03    9.9999864E-25
 -1.5450000E-03    9.9999992E-25
 -1.5100000E-03    1.0000009E-24
 -1.4750001E-03    1.0000002E-24
 -1.4400000E-03    1.0000001E-24
 -1.4050000E-03    1.0000006E-24
 -1.3700000E-03    1.0000001E-24
 -1.3350000E-03    1.0000000E-24
 -1.3000000E-03    9.9999982E-25
 -1.2650000E-03    9.9999913E-25
 -1.2300001E-03    9.9999992E-25
 -1.1950000E-03    1.0000010E-24
 -1.1600000E-03    9.9999982E-25
 -1.1250000E-03    9.9999933E-25
 -1.0900000E-03    1.0000009E-24
 -1.0550000E-03    1.0000009E-24
 -1.0200000E-03    9.9999923E-25
 -9.8500005E-04    9.9999884E-25
 -9.5000002E-04    1.0000007E-24
 -9.1499998E-04    1.0000012E-24
 -8.8000001E-04    9.9999943E-25
 -8.4499997E-04    9.9999874E-25
 -8.1000000E-04    1.0000008E-24
 -7.7500002E-04    1.0000010E-24
 -7.3999999E-04    9.9999864E-25
 -7.0500001E-04    9.9999893E-25
 -6.6999998E-04    1.0000011E-24
 -6.3500000E-04    1.0000011E-24
 -6.0000003E-04    9.9999953E-25
 -5.6499999E-04    9.9999963E-25
 -5.3000002E-04    1.0000005E-24
 -4.9499999E-04    1.0000011E-24
 -4.6000001E-04    1.0000004E-24
 -4.2500001E-04    9.9999923E-25
 -3.9000000E-04    9.9999943E-25
 -3.5500000E-04    1.0000002E-24
 -3.1999999E-04    9.9999982E-25
 -2.8499999E-04    9.9999923E-25
 -2.5000001E-04    1.0000004E-24
 -2.1499999E-04    1.0000009E-24
 -1.8000000E-04    9.9999953E-25
 -1.4500000E-04    9.9999923E-25
 -1.1000000E-04    1.0000002E-24
 -7.5000004E-05    1.0000005E-24
 -3.9999999E-05    1.0000005E-24
 -4.9999999E-06    1.0000004E-24
  2.9999999E-05    9.9999982E-25
  6.5000000E-05    9.9999982E-25
  9.9999997E-05    1.0000002E-24
  1.3499999E-04    1.0000000E-24
  1.7000000E-04    9.9999963E-25
  2.0500000E-04    1.0000001E-24
  2.3999999E-04    9.9999992E-25
  2.7500000E-04    9.9999943E-25
  3.1000000E-04    1.0000004E-24
  3.4500001E-04    9.9999992E-25
  3.8000001E-04    9.9999893E-25
  4.1499999E-04    1.0000002E-24
  4.4999999E-04    1.0000014E-24
  4.8500000E-04    9.9999963E-25
  5.2000000E-04    9.9999963E-25
  5.5499998E-04    1.0000015E-24
  5.9000001E-04    1.0000009E-24
  6.2499999E-04    9.9999923E-25
  6.6000002E-04    9.9999963E-25
  6.9500000E-04    1.0000005E-24
  7.3000003E-04    1.0000000E-24
  7.6500000E-04    9.9999972E-25
  7.9999998E-04    1.0000002E-24
  8.3500001E-04    1.0000000E-24
  8.6999999E-04    9.9999963E-25
  9.0500002E-04    9.9999982E-25
  9.4000000E-04    1.0000005E-24
  9.7499997E-04    1.0000005E-24
  1.0100000E-03    1.0000000E-24
  1.0450000E-03    1.0000005E-24
  1.0800000E-03    9.9999982E-25
  1.1150000E-03    9.9999893E-25
  1.1500000E-03    1.0000003E-24
  1.1849999E-03    1.0000012E-24
  1.2200000E-03    1.0000001E-24
  1.2550000E-03    9.9999963E-25
  1.2900000E-03    1.0000000E-24
  1.3250000E-03    1.0000004E-24
  1.3600000E-03    9.9999992E-25
  1.3950000E-03    9.9999884E-25
  1.4299999E-03    9.9999953E-25
  1.4650000E-03    1.0000008E-24
  1.5000000E-03    9.9999963E-25
  1.5350000E-03    9.9999972E-25
  1.5700000E-03    1.0000015E-24
  1.6050000E-03    1.0000002E-24
  1.6400000E-03    9.9999864E-25
  1.6749999E-03    1.0000001E-24
  1.7100000E-03    1.0000010E-24
  1.7450000E-03    1.0000001E-24
  1.7800000E-03    1.0000000E-24
  1.8150000E-03    9.9999982E-25
  1.8500000E-03    9.9999913E-25
  1.8850000E-03    1.0000001E-24
  1.9200000E-03    1.0000005E-24
  1.9550000E-03    1.0000005E-24
  1.9900000E-03    1.0000017E-24
  2.0250001E-03    1.0000006E-24
  2.0600001E-03    9.9999864E-25
  2.0949999E-03    9.9999953E-25
  2.1299999E-03    1.0000003E-24
  2.1650000E-03    9.9999923E-25
  2.2000000E-03    1.0000005E-24
  2.2350000E-03    1.0000022E-24
  2.2700001E-03    1.0000006E-24
  2.3050001E-03    9.9999943E-25
  2.3399999E-03    9.9999963E-25
  2.3749999E-03    9.9999953E-25
  2.4100000E-03    9.9999972E-25
  2.4450000E-03    9.9999982E-25
  2.4800000E-03    1.0000000E-24
  2.5150001E-03    1.0000012E-24
  2.5500001E-03    1.0000012E-24
  2.5849999E-03    9.9999923E-25
  2.6199999E-03    9.9999884E-25
  2.6550000E-03    9.9999923E-25
  2.6900000E-03    9.9999844E-25
  2.7250000E-03    9.9999923E-25
  2.7600001E-03    1.0000014E-24
  2.7950001E-03    1.0000016E-24
  2.8299999E-03    1.0000009E-24
  2.8649999E-03    1.0000011E-24
  2.9000000E-03    1.0000005E-24
  2.9350000E-03    9.9999893E-25
  2.9700000E-03    9.9999933E-25
  3.0050001E-03    1.0000005E-24
  3.0400001E-03    9.9999953E-25
  3.0749999E-03    9.9999923E-25
  3.1099999E-03    1.0000009E-24
  3.1450000E-03    1.0000009E-24
  3.1800000E-03    9.9999933E-25
  3.2150000E-03    9.9999933E-25
  3.2500001E-03    1.0000004E-24
  3.2850001E-03    9.9999982E-25
  3.3199999E-03    9.9999874E-25
  3.3549999E-03    9.9999903E-25
  3.3900000E-03    1.0000009E-24
  3.4250000E-03    1.0000012E-24
  3.4600000E-03    9.9999953E-25
  3.4950001E-03    9.9999972E-25
  3.5300001E-03    1.0000017E-24
  3.5649999E-03    9.9999992E-25
  3.5999999E-03    9.9999824E-25
  3.6350000E-03    1.0000011E-24
  3.6700000E-03    1.0000024E-24
  3.7050000E-03    9.9999903E-25
  3.7400001E-03    9.9999854E-25
  3.7750001E-03    1.0000011E-24
  3.8099999E-03    1.0000002E-24
  3.8449999E-03    9.9999913E-25
  3.8800000E-03    1.0000012E-24
  3.9149998E-03    1.0000015E-24
  3.9499998E-03    9.9999913E-25
  3.9849998E-03    9.9999864E-25
  4.0199999E-03    1.0000013E-24
  4.0549999E-03    1.0000012E-24
  4.0899999E-03    9.9999963E-25
  4.1250000E-03    1.0000000E-24
  4.1600000E-03    1.0000014E-24
  4.1950000E-03    1.0000004E-24
  4.2300001E-03    9.9999874E-25
  4.2650001E-03    9.9999923E-25
  4.3000001E-03    9.9999972E-25
  4.3350002E-03    9.9999893E-25
  4.3700002E-03    9.9999972E-25
  4.4049998E-03    1.0000014E-24
  4.4399998E-03    1.0000016E-24
  4.4749998E-03    1.0000008E-24
  4.5099999E-03    9.9999963E-25
  4.5449999E-03    9.9999884E-25
  4.5799999E-03    9.9999943E-25
  4.6150000E-03    1.0000003E-24
  4.6500000E-03    9.9999972E-25
  4.6850001E-03    9.9999972E-25
  4.7200001E-03    1.0000012E-24
  4.7550001E-03    1.0000013E-24
  4.7900002E-03    9.9999953E-25
  4.8250002E-03    9.9999893E-25
  4.8600002E-03    1.0000002E-24
  4.8949998E-03    1.0000010E-24
  4.9299998E-03    9.9999963E-25
  4.9649999E-03    9.9999884E-25
  4.9999999E-03    1.0000009E-24
  5.0349999E-03    1.0000012E-24
  5.0700000E-03    9.9999824E-25
  5.1050000E-03    9.9999913E-25
  5.1400000E-03    1.0000023E-24
  5.1750001E-03    1.0000005E-24
  5.2100001E-03    9.9999815E-25
  5.2450001E-03    1.0000011E-24
  5.2800002E-03    1.0000017E-24
  5.3150002E-03    9.9999854E-25
  5.3500002E-03    9.9999982E-25
  5.3849998E-03    1.0000016E-24
  5.4199998E-03    9.9999943E-25
  5.4549999E-03    9.9999992E-25
  5.4899999E-03    1.0000038E-24
  5.5249999E-03    1.0000012E-24
  5.5600000E-03    9.9999420E-25
  5.5950000E-03    9.9999637E-25
  5.6300000E-03    1.0000081E-24
  5.6650001E-03    1.0000086E-24
  5.7000001E-03    9.9998947E-25
  5.7350001E-03    9.9998335E-25
  5.7700002E-03    1.0000150E-24
  5.8050002E-03    1.0000329E-24
  5.8400002E-03    9.9998188E-25
  5.8749998E-03    9.9993918E-25
  5.9099998E-03    1.0000180E-24
  5.9449999E-03    1.0001072E-24
  5.9799999E-03    9.9998976E-25
  6.0149999E-03    9.9981276E-25
  6.0500000E-03    9.9997606E-25
  6.0850000E-03    1.0003115E-24
  6.1200000E-03    1.0001113E-24
  6.1550001E-03    9.9950531E-25
  6.1900001E-03    9.9970183E-25
  6.2250001E-03    1.0007563E-24
  6.2600002E-03    1.0006743E-24
  6.2950002E-03    9.9890212E-25
  6.3299998E-03    9.9861715E-25
  6.3649998E-03    1.0014820E-24
  6.3999998E-03    1.0026441E-24
  6.4349999E-03    9.9820970E-25
  6.4699999E-03    9.9521597E-25
  6.5049999E-03    1.0017450E-24
  6.5400000E-03    1.0082608E-24
  6.5750000E-03    9.9923551E-25
  6.6100000E-03    9.8635509E-25
  6.6450001E-03    9.9775906E-25
  6.6800001E-03    1.0215447E-24
  6.7150001E-03    1.0091823E-24
  6.7500002E-03    9.6761166E-25
  6.7850002E-03    9.7677438E-25
  6.8199998E-03    1.0459487E-24
  6.8549998E-03    1.0493222E-24
  6.8899998E-03    9.3957091E-25
  6.9249999E-03    9.0524648E-25
  6.9599999E-03    1.0708761E-24
  6.9949999E-03    1.1695025E-24
  7.0300000E-03    9.3342322E-25
  7.0650000E-03    7.1399450E-25
  7.1000000E-03    1.0271023E-24
  7.1350001E-03    1.4575167E-24
  7.1700001E-03    1.0832949E-24
  7.2050001E-03    3.0619402E-25
  7.2400002E-03    6.7707542E-25
  7.2750002E-03    1.9922327E-24
  7.3099998E-03    1.7809180E-24
  7.3449998E-03   -3.2139226E-25
  7.3799998E-03   -5.8453927E-25
  7.4149999E-03    2.5938046E-24
  7.4499999E-03    3.9014355E-24
  7.4850000E-03   -6.2370134E-25
  7.5200000E-03   -3.9291639E-24
  7.5550000E-03    2.0665726E-24
  7.5900001E-03    8.8594602E-24
  7.6250001E-03    1.6602390E-24
  7.6600001E-03   -1.0797950E-23
  7.6950002E-03   -3.4699865E-24
  7.7300002E-03    1.7613125E-23
  7.7650002E-03    1.2694337E-23
  7.7999998E-03   -2.0680845E-23
  7.8349998E-03   -2.3128330E-23
  7.8699999E-03    2.6489006E-23
  7.9049999E-03    4.4962825E-23
  7.9399999E-03   -2.4073488E-23
  7.9750000E-03   -7.2493099E-23
  8.0100000E-03    1.6284842E-23
  8.0450000E-03    1.1543653E-22
  8.0800001E-03    1.3058394E-23
  8.1150001E-03   -1.6563930E-22
  8.1500001E-03   -6.7966842E-23
  8.1850002E-03    2.2690237E-22
  8.2200002E-03    1.7269079E-22
  8.2550002E-03   -2.7966836E-22
  8.2900003E-03   -3.3916551E-22
  8.3250003E-03    3.0839049E-22
  8.3600003E-03    5.9658811E-22
  8.3950004E-03   -2.6366246E-22
  8.4300004E-03   -9.5383588E-22
  8.4650004E-03    8.7709475E-23
  8.5000005E-03    1.4211316E-21
  8.5349996E-03    3.2335063E-22
  8.5699996E-03   -1.9611047E-21
  8.6049996E-03   -1.0897026E-21
  8.6399997E-03    2.4957903E-21
  8.6749997E-03    2.3741180E-21
  8.7099997E-03   -2.8408706E-21
  8.7449998E-03   -4.3296043E-21
  8.7799998E-03    2.6970206E-21
  8.8149998E-03    7.0879822E-21
  8.8499999E-03   -1.5756242E-21
  8.8849999E-03   -1.0650989E-20
  8.9199999E-03   -1.2009833E-21
  8.9550000E-03    1.4802198E-20
  8.9900000E-03    6.5330410E-21
  9.0250000E-03   -1.8905263E-20
  9.0600001E-03   -1.5451399E-20
  9.0950001E-03    2.1719856E-20
  9.1300001E-03    2.8986845E-20
  9.1650002E-03   -2.1126254E-20
  9.2000002E-03   -4.7821253E-20
  9.2350002E-03    1.3934618E-20
  9.2700003E-03    7.1796847E-20
  9.3050003E-03    4.2644969E-21
  9.3400003E-03   -9.9114810E-20
  9.3750004E-03   -3.8945828E-20
  9.4100004E-03    1.2534760E-19
  9.4450004E-03    9.6136055E-20
  9.4799995E-03   -1.4220353E-19
  9.5149996E-03   -1.8118197E-19
  9.5499996E-03    1.3634777E-19
  9.5849996E-03    2.9668262E-19
  9.6199997E-03   -8.8494393E-20
  9.6549997E-03   -4.3925731E-19
  9.6899997E-03   -2.6556414E-20
  9.7249998E-03    5.9520820E-19
  9.7599998E-03    2.3830730E-19
  9.7949998E-03   -7.3516101E-19
  9.8299999E-03   -5.7629849E-19
  9.8649999E-03    8.0847020E-19
  9.8999999E-03    1.0622723E-18
  9.9350000E-03   -7.3854139E-19
  9.9700000E-03   -1.6977514E-18
  1.0005000E-02    4.2128877E-19
  1.0040000E-02    2.4468282E-18
  1.0075000E-02    2.7045373E-19
  1.0110000E-02   -3.2146114E-18
  1.0145000E-02   -1.4727416E-18
  1.0180000E-02    3.8239348E-18
  1.0215000E-02    3.3027945E-18
  1.0250000E-02   -3.9946930E-18
  1.0285000E-02   -5.8139800E-18
  1.0320000E-02    3.3337428E-18
  1.0355000E-02    8.9323024E-18
  1.0390000E-02   -1.3457457E-18
  1.0425000E-02   -1.2376290E-17
  1.0460000E-02   -2.5215366E-18
  1.0495000E-02    1.5568849E-17
  1.0530000E-02    8.7839012E-18
  1.0565000E-02   -1.7556857E-17
  1.0600000E-02   -1.7766516E-17
  1.0635000E-02    1.6965660E-17
  1.0670000E-02    2.9384347E-17
  1.0705000E-02   -1.2023758E-17
  1.0740000E-02   -4.2865025E-17
  1.0775000E-02    7.0331259E-19
  1.0810000E-02    5.6441551E-17
  1.0845000E-02    1.8978655E-17
  1.0880000E-02   -6.7071014E-17
  1.0915000E-02   -4.8458722E-17
  1.0950000E-02    7.0264956E-17
  1.0985000E-02    8.7914211E-17
  1.1020000E-02   -6.0146546E-17
  1.1055000E-02   -1.3536325E-16
  1.1090000E-02    2.9880037E-17
  1.1125000E-02    1.8567779E-16
  1.1160000E-02    2.7396611E-17
  1.1195000E-02   -2.2968153E-16
  1.1230000E-02   -1.1702239E-16
  1.1265000E-02    2.5360312E-16
  1.1300000E-02    2.4061879E-16
  1.1335000E-02   -2.3924252E-16
  1.1370000E-02   -3.9336822E-16
  1.1405000E-02    1.6524424E-16
  1.1440000E-02    5.6104768E-16
  1.1475000E-02   -9.8925532E-18
  1.1510000E-02   -7.1738804E-16
  1.1545000E-02   -2.4433324E-16
  1.1580000E-02    8.2253533E-16
  1.1615000E-02    6.0441026E-16
  1.1650000E-02   -8.2359369E-16
  1.1685000E-02   -1.0589856E-15
  1.1720000E-02    6.5839998E-16
  1.1755000E-02    1.5701530E-15
  1.1790000E-02   -2.6350732E-16
  1.1825000E-02   -2.0663036E-15
  1.1860000E-02   -4.1306660E-16
  1.1895000E-02    2.4382724E-15
  1.1930000E-02    1.3944498E-15
  1.1965000E-02   -2.5414129E-15
  1.2000000E-02   -2.6541345E-15
  1.2035000E-02    2.2064389E-15
  1.2070000E-02    4.0946233E-15
  1.2105000E-02   -1.2611244E-15
  1.2140000E-02   -5.5296708E-15
  1.2175000E-02   -4.3566459E-16
  1.2210000E-02    6.6759393E-15
  1.2245000E-02    2.9491455E-15
  1.2280000E-02   -7.1604837E-15
  1.2315000E-02   -6.2166196E-15
  1.2350000E-02    6.5505052E-15
  1.2385000E-02    9.9957799E-15
  1.2420000E-02   -4.4103159E-15
  1.2455000E-02   -1.3824254E-14
  1.2490000E-02    3.8644409E-16
  1.2525000E-02    1.7004503E-14
  1.2560000E-02    5.6833751E-15
  1.2595000E-02   -1.8628462E-14
  1.2630000E-02   -1.3647634E-14
  1.2665000E-02    1.7656066E-14
  1.2700000E-02    2.2925006E-14
  1.2735000E-02   -1.3055663E-14
  1.2770000E-02   -3.2420057E-14
  1.2805000E-02    4.0066734E-15
  1.2840000E-02    4.0503147E-14
  1.2875000E-02    9.8512117E-15
  1.2910000E-02   -4.5083993E-14
  1.2945000E-02   -2.8147869E-14
  1.2980000E-02    4.3808070E-14
  1.3015000E-02    4.9540189E-14
  1.3050000E-02   -3.4384381E-14
  1.3085000E-02   -7.1552498E-14
  1.3120000E-02    1.5040268E-14
  1.3155000E-02    9.0568280E-14
  1.3190000E-02    1.4940108E-14
  1.3225000E-02   -1.0203393E-13
  1.3260000E-02   -5.4658860E-14
  1.3295000E-02    1.0091916E-13
  1.3330000E-02    1.0113151E-13
  1.3365000E-02   -8.2443817E-14
  1.3400000E-02   -1.4901874E-13
  1.3435000E-02    4.3040604E-14
  1.3470000E-02    1.9069346E-13
  1.3505000E-02    1.8548495E-14
  1.3540000E-02   -2.1675355E-13
  1.3575000E-02   -1.0019216E-13
  1.3610000E-02    2.1704399E-13
  1.3645000E-02    1.9551987E-13
  1.3680000E-02   -1.8218538E-13
  1.3715000E-02   -2.9353223E-13
  1.3750000E-02    1.0550428E-13
  1.3785000E-02    3.7892636E-13
  1.3820000E-02    1.4869319E-14
  1.3855000E-02   -4.3328123E-13
  1.3890000E-02   -1.7402686E-13
  1.3925000E-02    4.3723177E-13
  1.3960000E-02    3.5890212E-13
  1.3995000E-02   -3.7349724E-13
  1.4030000E-02   -5.4784172E-13
  1.4065000E-02    2.3055174E-13
  1.4100000E-02    7.1160032E-13
  1.4135000E-02   -6.4147266E-15
  1.4170000E-02   -8.1597489E-13
  1.4205000E-02   -2.8803313E-13
  1.4240000E-02    8.2612682E-13
  1.4275000E-02    6.2699802E-13
  1.4310000E-02   -7.1234723E-13
  1.4345000E-02   -9.6975401E-13
  1.4380000E-02    4.5658795E-13
  1.4415000E-02    1.2631793E-12
  1.4450000E-02   -5.8864934E-14
  1.4485000E-02   -1.4472282E-12
  1.4520000E-02   -4.5761273E-13
  1.4555000E-02    1.4631740E-12
  1.4590000E-02    1.0440468E-12
  1.4625000E-02   -1.2638487E-12
  1.4660000E-02   -1.6274071E-12
  1.4695000E-02    8.2462699E-13
  1.4730000E-02    2.1164108E-12
  1.4765000E-02   -1.5329879E-13
  1.4800000E-02   -2.4121310E-12
  1.4835000E-02   -7.0302927E-13
  1.4870000E-02    2.4227530E-12
  1.4905000E-02    1.6563379E-12
  1.4940000E-02   -2.0806137E-12
  1.4975000E-02   -2.5827491E-12
  1.5010000E-02    1.3590519E-12
  1.5045000E-02    3.3350035E-12
  1.5080000E-02   -2.8613979E-13
  1.5115000E-02   -3.7619222E-12
  1.5150000E-02   -1.0481740E-12
  1.5185000E-02    3.7326995E-12
  1.5220000E-02    2.4941618E-12
  1.5255000E-02   -3.1629636E-12
  1.5290000E-02   -3.8552165E-12
  1.5325000E-02    2.0377695E-12
  1.5360000E-02    4.9114744E-12
  1.5395000E-02   -4.2743559E-13
  1.5430000E-02   -5.4521760E-12
  1.5465000E-02   -1.5089750E-12
  1.5500000E-02    5.3123066E-12
  1.5535000E-02    3.5346899E-12
  1.5570000E-02   -4.4079076E-12
  1.5605000E-02   -5.3622393E-12
  1.5640000E-02    2.7625983E-12
  1.5675001E-02    6.6932345E-12
  1.5710000E-02   -5.2016768E-13
  1.5745001E-02   -7.2668026E-12
  1.5780000E-02   -2.0626539E-12
  1.5814999E-02    6.9084404E-12
  1.5850000E-02    4.6443504E-12
  1.5884999E-02   -5.5700540E-12
  1.5920000E-02   -6.8455454E-12
  1.5954999E-02    3.3532339E-12
  1.5990000E-02    8.3085986E-12
  1.6024999E-02   -5.0813867E-13
  1.6060000E-02   -8.7607326E-12
  1.6094999E-02   -2.5939940E-12
  1.6130000E-02    8.0684808E-12
  1.6164999E-02    5.5140090E-12
  1.6200000E-02   -6.2723954E-12
  1.6235000E-02   -7.8152710E-12
  1.6270000E-02    3.5929020E-12
  1.6305000E-02    9.1396248E-12
  1.6340001E-02   -4.0345665E-13
  1.6375000E-02   -9.2756835E-12
  1.6410001E-02   -2.8278890E-12
  1.6445000E-02    8.2038230E-12
  1.6480001E-02    5.6184358E-12
  1.6515000E-02   -6.1079895E-12
  1.6550001E-02   -7.5602623E-12
  1.6585000E-02    3.3466988E-12
  1.6620001E-02    8.3985362E-12
  1.6655000E-02   -3.8854364E-13
  1.6690001E-02   -8.0841497E-12
  1.6725000E-02   -2.2793750E-12
  1.6759999E-02    6.7850395E-12
  1.6795000E-02    4.2505925E-12
  1.6829999E-02   -4.8522358E-12
  1.6865000E-02   -5.2869987E-12
  1.6899999E-02    2.7423651E-12
  1.6935000E-02    5.3707572E-12
  1.6969999E-02   -9.1342255E-13
  1.7005000E-02   -4.7097894E-12
  1.7039999E-02   -2.8683211E-13
  1.7075000E-02    3.6870142E-12
  1.7109999E-02    7.1134000E-13
  1.7145000E-02   -2.7633210E-12
  1.7180000E-02   -4.6016543E-13
  1.7215000E-02    2.3520055E-12
  1.7250000E-02   -1.3459973E-13
  1.7285001E-02   -2.6948881E-12
  1.7320000E-02    5.8797628E-13
  1.7355001E-02    3.7722130E-12
  1.7390000E-02   -3.9209139E-13
  1.7425001E-02   -5.2736730E-12
  1.7460000E-02   -8.3069272E-13
  1.7495001E-02    6.6464534E-12
  1.7530000E-02    3.1886212E-12
  1.7565001E-02   -7.2184034E-12
  1.7600000E-02   -6.4351640E-12
  1.7635001E-02    6.3748126E-12
  1.7670000E-02    9.9677723E-12
  1.7704999E-02   -3.7502510E-12
  1.7740000E-02   -1.2927505E-11
  1.7774999E-02   -6.1751374E-13
  1.7810000E-02    1.4384267E-11
  1.7844999E-02    6.2170941E-12
  1.7880000E-02   -1.3571007E-11
  1.7914999E-02   -1.2106001E-11
  1.7950000E-02    1.0114599E-11
  1.7984999E-02    1.7073769E-11
  1.8020000E-02   -4.2016312E-12
  1.8054999E-02   -1.9901180E-11
  1.8090000E-02   -3.3752127E-12
  1.8124999E-02    1.9662038E-11
  1.8160000E-02    1.1321436E-11
  1.8195000E-02   -1.5991380E-11
  1.8230001E-02   -1.8088345E-11
  1.8265000E-02    9.2421392E-12
  1.8300001E-02    2.2209961E-11
  1.8335000E-02   -4.8470754E-13
  1.8370001E-02   -2.2660119E-11
  1.8405000E-02   -8.6725254E-12
  1.8440001E-02    1.9138927E-11
  1.8475000E-02    1.6417527E-11
  1.8510001E-02   -1.2204006E-11
  1.8545000E-02   -2.1152836E-11
  1.8580001E-02    3.1906311E-12
  1.8615000E-02    2.1883082E-11
  1.8650001E-02    6.0618945E-12
  1.8685000E-02   -1.8478266E-11
  1.8719999E-02   -1.3623816E-11
  1.8755000E-02    1.1739395E-11
  1.8789999E-02    1.7934385E-11
  1.8825000E-02   -3.2350485E-12
  1.8859999E-02   -1.8197912E-11
  1.8895000E-02   -5.0794876E-12
  1.8929999E-02    1.4581735E-11
  1.8965000E-02    1.1346482E-11
  1.8999999E-02   -8.1637639E-12
  1.9035000E-02   -1.4257279E-11
  1.9069999E-02    6.5861682E-13
  1.9105000E-02    1.3369326E-11
  1.9140000E-02    6.0103689E-12
  1.9175000E-02   -9.2272422E-12
  1.9210000E-02   -1.0228519E-11
  1.9245001E-02    3.2025008E-12
  1.9280000E-02    1.1132989E-11
  1.9315001E-02    2.9241869E-12
  1.9350000E-02   -8.8084253E-12
  1.9385001E-02   -7.4672369E-12
  1.9420000E-02    4.2079972E-12
  1.9455001E-02    9.2654218E-12
  1.9490000E-02    1.1084070E-12
  1.9525001E-02   -8.0039777E-12
  1.9560000E-02   -5.4065498E-12
  1.9595001E-02    4.3471784E-12
  1.9630000E-02    7.3439007E-12
  1.9664999E-02    2.8257366E-13
  1.9700000E-02   -6.4129843E-12
  1.9734999E-02   -4.2121740E-12
  1.9770000E-02    3.0322001E-12
  1.9804999E-02    6.0037014E-12
  1.9840000E-02    1.5966922E-12
  1.9874999E-02   -4.8275797E-12
  1.9910000E-02   -5.7387341E-12
  1.9944999E-02    8.1201013E-13
  1.9980000E-02    7.6274716E-12
  2.0014999E-02    4.8399206E-12
  2.0050000E-02   -6.1612126E-12
  2.0085000E-02   -1.0268783E-11
  2.0120000E-02    1.2716254E-12
  2.0155000E-02    1.3586385E-11
  2.0190001E-02    6.1778070E-12
  2.0225000E-02   -1.3240669E-11
  2.0260001E-02   -1.4504991E-11
  2.0295000E-02    8.3619656E-12
  2.0330001E-02    2.1349708E-11
  2.0365000E-02    6.7188394E-13
  2.0400001E-02   -2.4383251E-11
  2.0435000E-02   -1.2138049E-11
  2.0470001E-02    2.2213655E-11
  2.0505000E-02    2.3673039E-11
  2.0540001E-02   -1.4550357E-11
  2.0575000E-02   -3.2832126E-11
  2.0609999E-02    2.0035514E-12
  2.0645000E-02    3.7133088E-11
  2.0679999E-02    1.3572721E-11
  2.0715000E-02   -3.4673209E-11
  2.0749999E-02   -2.9021200E-11
  2.0785000E-02    2.5250012E-11
  2.0819999E-02    4.1069287E-11
  2.0855000E-02   -1.0341288E-11
  2.0889999E-02   -4.7385627E-11
  2.0925000E-02   -7.8492152E-12
  2.0959999E-02    4.6362341E-11
  2.0995000E-02    2.6411560E-11
  2.1029999E-02   -3.7280824E-11
  2.1065000E-02   -4.1490717E-11
  2.1100000E-02    2.1589315E-11
  2.1135001E-02    4.9845694E-11
  2.1170000E-02   -2.7026257E-12
  2.1205001E-02   -5.0499570E-11
  2.1240000E-02   -1.6089009E-11
  2.1275001E-02    4.3877672E-11
  2.1310000E-02    3.2141831E-11
  2.1345001E-02   -3.0873880E-11
  2.1380000E-02   -4.2588405E-11
  2.1415001E-02    1.3970015E-11
  2.1450000E-02    4.5522575E-11
  2.1485001E-02    2.8001336E-12
  2.1520000E-02   -4.1945059E-11
  2.1555001E-02   -1.6752872E-11
  2.1590000E-02    3.4105933E-11
  2.1624999E-02    2.7388352E-11
  2.1660000E-02   -2.2864469E-11
  2.1694999E-02   -3.3494364E-11
  2.1730000E-02    9.8169649E-12
  2.1764999E-02    3.4174007E-11
  2.1800000E-02    2.5331412E-12
  2.1834999E-02   -2.9871456E-11
  2.1870000E-02   -1.1274141E-11
  2.1904999E-02    2.4519907E-11
  2.1940000E-02    1.9384402E-11
  2.1974999E-02   -1.5225939E-11
  2.2010000E-02   -2.2803870E-11
  2.2045000E-02    6.3834354E-12
  2.2080000E-02    2.5332953E-11
  2.2115000E-02    7.0940012E-12
  2.2150001E-02   -1.7427405E-11
  2.2185000E-02   -1.0585926E-11
  2.2220001E-02    1.6844895E-11
  2.2255000E-02    2.4309417E-11
  2.2290001E-02    1.0733964E-12
  2.2325000E-02   -1.7555972E-11
  2.2360001E-02   -8.3556690E-14
  2.2395000E-02    3.2721038E-11
  2.2430001E-02    3.3534071E-11
  2.2465000E-02    3.8400416E-13
  2.2500001E-02   -1.2751149E-11
  2.2535000E-02    2.3858701E-11
  2.2569999E-02    6.2271750E-11
  2.2605000E-02    4.5627072E-11
  2.2639999E-02    2.6660887E-12
  2.2675000E-02    1.1845170E-11
  2.2709999E-02    7.7673583E-11
  2.2745000E-02    1.1476725E-10
  2.2779999E-02    7.7460142E-11
  2.2815000E-02    3.7752509E-11
  2.2849999E-02    8.1801274E-11
  2.2885000E-02    1.7519107E-10
  2.2919999E-02    2.0693940E-10
  2.2955000E-02    1.5784614E-10
  2.2990000E-02    1.4128557E-10
  2.3025000E-02    2.3980137E-10
  2.3060000E-02    3.7121700E-10
  2.3095001E-02    4.0028761E-10
  2.3130000E-02    3.5061373E-10
  2.3165001E-02    3.8861234E-10
  2.3200000E-02    5.7323624E-10
  2.3235001E-02    7.4987699E-10
  2.3270000E-02    7.8301632E-10
  2.3305001E-02    7.8289680E-10
  2.3340000E-02    9.4865027E-10
  2.3375001E-02    1.2527689E-09
  2.3410000E-02    1.4777751E-09
  2.3445001E-02    1.5660945E-09
  2.3480000E-02    1.7219706E-09
  2.3514999E-02    2.0922677E-09
  2.3550000E-02    2.5407887E-09
  2.3584999E-02    2.8784310E-09
  2.3620000E-02    3.1693790E-09
  2.3654999E-02    3.6259997E-09
  2.3690000E-02    4.2835824E-09
  2.3724999E-02    4.9748343E-09
  2.3760000E-02    5.6114375E-09
  2.3794999E-02    6.3176562E-09
  2.3830000E-02    7.2410242E-09
  2.3864999E-02    8.3583052E-09
  2.3900000E-02    9.5487769E-09
  2.3934999E-02    1.0792817E-08
  2.3970000E-02    1.2206344E-08
  2.4005000E-02    1.3894389E-08
  2.4040001E-02    1.5838481E-08
  2.4075000E-02    1.7956555E-08
  2.4110001E-02    2.0251459E-08
  2.4145000E-02    2.2845693E-08
  2.4180001E-02    2.5845550E-08
  2.4215000E-02    2.9232648E-08
  2.4250001E-02    3.2946900E-08
  2.4285000E-02    3.7029505E-08
  2.4320001E-02    4.1615589E-08
  2.4355000E-02    4.6801990E-08
  2.4390001E-02    5.2591592E-08
  2.4425000E-02    5.8971835E-08
  2.4460001E-02    6.6009271E-08
  2.4495000E-02    7.3844191E-08
  2.4529999E-02    8.2593886E-08
  2.4565000E-02    9.2307310E-08
  2.4599999E-02    1.0301106E-07
  2.4635000E-02    1.1478575E-07
  2.4669999E-02    1.2779759E-07
  2.4705000E-02    1.4222918E-07
  2.4739999E-02    1.5817420E-07
  2.4775000E-02    1.7567194E-07
  2.4809999E-02    1.9485110E-07
  2.4845000E-02    2.1596767E-07
  2.4879999E-02    2.3924724E-07
  2.4915000E-02    2.6478460E-07
  2.4950000E-02    2.9267994E-07
  2.4985000E-02    3.2319736E-07
  2.5020000E-02    3.5666093E-07
  2.5055001E-02    3.9327614E-07
  2.5090000E-02    4.3319861E-07
  2.5125001E-02    4.7670650E-07
  2.5160000E-02    5.2417022E-07
  2.5195001E-02    5.7589421E-07
  2.5230000E-02    6.3214958E-07
  2.5265001E-02    6.9324409E-07
  2.5300000E-02    7.5959736E-07
  2.5335001E-02    8.3163735E-07
  2.5370000E-02    9.0973083E-07
  2.5405001E-02    9.9425370E-07
  2.5440000E-02    1.0857127E-06
  2.5474999E-02    1.1846263E-06
  2.5510000E-02    1.2914676E-06
  2.5544999E-02    1.4067606E-06
  2.5580000E-02    1.5310122E-06
  2.5614999E-02    1.6648438E-06
  2.5650000E-02    1.8089713E-06
  2.5684999E-02    1.9639760E-06
  2.5720000E-02    2.1304470E-06
  2.5754999E-02    2.3090761E-06
  2.5790000E-02    2.5006950E-06
  2.5824999E-02    2.7061542E-06
  2.5860000E-02    2.9261603E-06
  2.5895000E-02    3.1611985E-06
  2.5930000E-02    3.4123534E-06
  2.5965000E-02    3.6809517E-06
  2.6000001E-02    3.9674987E-06
  2.6035000E-02    4.2725710E-06
  2.6070001E-02    4.5975189E-06
  2.6105000E-02    4.9434343E-06
  2.6140001E-02    5.3112003E-06
  2.6175000E-02    5.7018965E-06
  2.6210001E-02    6.1164274E-06
  2.6245000E-02    6.5558138E-06
  2.6280001E-02    7.0216997E-06
  2.6315000E-02    7.5147996E-06
  2.6350001E-02    8.0358141E-06
  2.6385000E-02    8.5866104E-06
  2.6419999E-02    9.1684042E-06
  2.6455000E-02    9.7816392E-06
  2.6489999E-02    1.0428082E-05
  2.6525000E-02    1.1108884E-05
  2.6559999E-02    1.1824561E-05
  2.6595000E-02    1.2576838E-05
  2.6629999E-02    1.3367189E-05
  2.6665000E-02    1.4196161E-05
  2.6699999E-02    1.5065057E-05
  2.6735000E-02    1.5975022E-05
  2.6769999E-02    1.6926959E-05
  2.6805000E-02    1.7922201E-05
  2.6839999E-02    1.8961317E-05
  2.6875000E-02    2.0045056E-05
  2.6910000E-02    2.1175487E-05
  2.6945001E-02    2.2353457E-05
  2.6980000E-02    2.3577935E-05