 -4.8000002E-03    1.0000000E-24
 -4.7650002E-03    1.0000002E-24
 -4.7300002E-03    1.0000001E-24
 -4.6950001E-03    9.9999992E-25
 -4.6600001E-03    1.0000001E-24
 -4.6250001E-03    1.0000002E-24
 -4.5900000E-03    1.0000000E-24
 -4.5550000E-03    1.0000001E-24
 -4.5200000E-03    1.0000003E-24
 -4.4849999E-03    9.9999992E-25
 -4.4499999E-03    9.9999982E-25
 -4.4149999E-03    1.0000003E-24
 -4.3799998E-03    1.0000003E-24
 -4.3449998E-03    9.9999972E-25
 -4.3100002E-03    1.0000000E-24
 -4.2750002E-03    1.0000004E-24
 -4.2400002E-03    1.0000003E-24
 -4.2050001E-03    9.9999992E-25
 -4.1700001E-03    1.0000002E-24
 -4.1350001E-03    1.0000002E-24
 -4.1000000E-03    9.9999982E-25
 -4.0650000E-03    9.9999963E-25
 -4.0300000E-03    9.9999982E-25
 -3.9949999E-03    1.0000001E-24
 -3.9599999E-03    1.0000001E-24
 -3.9249999E-03    1.0000001E-24
 -3.8900001E-03    1.0000003E-24
 -3.8550000E-03    1.0000001E-24
 -3.8200000E-03    9.9999972E-25
 -3.7849999E-03    9.9999982E-25
 -3.7499999E-03    1.0000006E-24
 -3.7150001E-03    1.0000006E-24
 -3.6800001E-03    9.9999972E-25
 -3.6450000E-03    9.9999972E-25
 -3.6100000E-03    1.0000005E-24
 -3.5750000E-03    1.0000002E-24
 -3.5399999E-03    9.9999903E-25
 -3.5049999E-03    9.9999953E-25
 -3.4700001E-03    1.0000007E-24
 -3.4350001E-03    1.0000005E-24
 -3.4000000E-03    9.9999992E-25
 -3.3650000E-03    1.0000000E-24
 -3.3300000E-03    1.0000003E-24
 -3.2949999E-03    1.0000000E-24
 -3.2599999E-03    1.0000000E-24
 -3.2250001E-03    1.0000003E-24
 -3.1900001E-03    9.9999963E-25
 -3.1550000E-03    9.9999923E-25
 -3.1200000E-03    1.0000005E-24
 -3.0850000E-03    1.0000008E-24
 -3.0499999E-03    9.9999933E-25
 -3.0149999E-03    9.9999963E-25
 -2.9800001E-03    1.0000012E-24
 -2.9450001E-03    1.0000006E-24
 -2.9100000E-03    9.9999884E-25
 -2.8750000E-03    9.9999972E-25
 -2.8400000E-03    1.0000014E-24
 -2.8049999E-03    1.0000005E-24
 -2.7699999E-03    9.9999884E-25
 -2.7350001E-03    9.9999923E-25
 -2.7000001E-03    1.0000006E-24
 -2.6650000E-03    1.0000007E-24
 -2.6300000E-03    1.0000001E-24
 -2.5950000E-03    1.0000001E-24
 -2.5599999E-03    1.0000004E-24
 -2.5249999E-03    1.0000002E-24
 -2.4900001E-03    9.9999982E-25
 -2.4550001E-03    9.9999953E-25
 -2.4200000E-03    9.9999933E-25
 -2.3850000E-03    1.0000000E-24
 -2.3500000E-03    1.0000014E-24
 -2.3149999E-03    1.0000006E-24
 -2.2799999E-03    9.9999864E-25
 -2.2450001E-03    9.9999913E-25
 -2.2100001E-03    1.0000009E-24
 -2.1750000E-03    1.0000003E-24
 -2.1400000E-03    9.9999893E-25
 -2.1050000E-03    1.0000005E-24
 -2.0699999E-03    1.0000022E-24
 -2.0349999E-03    1.0000005E-24
 -2.0000001E-03    9.9999844E-25
 -1.9650001E-03    9.9999893E-25
 -1.9300000E-03    1.0000005E-24
 -1.8950000E-03    1.0000003E-24
 -1.8600000E-03    9.9999953E-25
 -1.8250000E-03    1.0000000E-24
 -1.7900000E-03    1.0000011E-24
 -1.7550000E-03    1.0000000E-24
 -1.7199999E-03    9.9999884E-25
 -1.6850000E-03    1.0000000E-24
 -1.6500000E-03    1.0000007E-24
 -1.6150000E-03    9.9999992E-25
 -1.5800000E-03    1.0000002E-24
 -1.5450000E-03    1.0000010E-24
 -1.5100000E-03    1.0000001E-24
 -1.4750001E-03    9.9999913E-25
 -1.4400000E-03    1.0000003E-24
 -1.4050000E-03    1.0000005E-24
 -1.3700000E-03    9.9999893E-25
 -1.3350000E-03    9.9999982E-25
 -1.3000000E-03    1.0000016E-24
 -1.2650000E-03    1.0000003E-24
 -1.2300001E-03    9.9999844E-25
 -1.1950000E-03    9.9999943E-25
 -1.1600000E-03    1.0000008E-24
 -1.1250000E-03    9.9999972E-25
 -1.0900000E-03    9.9999923E-25
 -1.0550000E-03    1.0000006E-24
 -1.0200000E-03    1.0000018E-24
 -9.8500005E-04    1.0000006E-24
 -9.5000002E-04    9.9999953E-25
 -9.1499998E-04    1.0000002E-24
 -8.8000001E-04    1.0000003E-24
 -8.4499997E-04    9.9999982E-25
 -8.1000000E-04    1.0000001E-24
 -7.7500002E-04    9.9999982E-25
 -7.3999999E-04    9.9999943E-25
 -7.0500001E-04    1.0000004E-24
 -6.6999998E-04    1.0000010E-24
 -6.3500000E-04    9.9999923E-25
 -6.0000003E-04    9.9999824E-25
 -5.6499999E-04    1.0000005E-24
 -5.3000002E-04    1.0000016E-24
 -4.9499999E-04    9.9999972E-25
 -4.6000001E-04    9.9999982E-25
 -4.2500001E-04    1.0000011E-24
 -3.9000000E-04    1.0000003E-24
 -3.5500000E-04    9.9999933E-25
 -3.1999999E-04    1.0000000E-24
 -2.8499999E-04    1.0000000E-24
 -2.5000001E-04    9.9999953E-25
 -2.1499999E-04    1.0000003E-24
 -1.8000000E-04    1.0000005E-24
 -1.4500000E-04    1.0000003E-24
 -1.1000000E-04    1.0000010E-24
 -7.5000004E-05    1.0000006E-24
 -3.9999999E-05    9.9999923E-25
 -4.9999999E-06    9.9999874E-25
  2.9999999E-05    9.9999893E-25
  6.5000000E-05    1.0000004E-24
  9.9999997E-05    1.0000018E-24
  1.3499999E-04    1.0000007E-24
  1.7000000E-04    9.9999874E-25
  2.0500000E-04    9.9999972E-25
  2.3999999E-04    1.0000010E-24
  2.7500000E-04    9.9999972E-25
  3.1000000E-04    9.9999982E-25
  3.4500001E-04    1.0000018E-24
  3.8000001E-04    1.0000007E-24
  4.1499999E-04    9.9999893E-25
  4.4999999E-04    9.9999953E-25
  4.8500000E-04    1.0000000E-24
  5.2000000E-04    9.9999953E-25
  5.5499998E-04    1.0000003E-24
  5.9000001E-04    1.0000007E-24
  6.2499999E-04    9.9999943E-25
  6.6000002E-04    9.9999992E-25
  6.9500000E-04    1.0000016E-24
  7.3000003E-04    1.0000005E-24
  7.6500000E-04    9.9999903E-25
  7.9999998E-04    1.0000001E-24
  8.3500001E-04    1.0000003E-24
  8.6999999E-04    9.9999933E-25
  9.0500002E-04    1.0000011E-24
  9.4000000E-04    1.0000017E-24
  9.7499997E-04    9.9999884E-25
  1.0100000E-03    9.9999844E-25
  1.0450000E-03    1.0000001E-24
  1.0800000E-03    9.9999992E-25
  1.1150000E-03    1.0000000E-24
  1.1500000E-03    1.0000011E-24
  1.1849999E-03    1.0000004E-24
  1.2200000E-03    9.9999982E-25
  1.2550000E-03    9.9999982E-25
  1.2900000E-03    9.9999923E-25
  1.3250000E-03    9.9999963E-25
  1.3600000E-03    1.0000013E-24
  1.3950000E-03    1.0000012E-24
  1.4299999E-03    1.0000001E-24
  1.4650000E-03    1.0000002E-24
  1.5000000E-03    1.0000003E-24
  1.5350000E-03    1.0000002E-24
  1.5700000E-03    1.0000003E-24
  1.6050000E-03    9.9999893E-25
  1.6400000E-03    9.9999864E-25
  1.6749999E-03    1.0000007E-24
  1.7100000E-03    1.0000009E-24
  1.7450000E-03    9.9999903E-25
  1.7800000E-03    9.9999923E-25
  1.8150000E-03    1.0000004E-24
  1.8500000E-03    9.9999992E-25
  1.8850000E-03    9.9999963E-25
  1.9200000E-03    1.0000006E-24
  1.9550000E-03    1.0000005E-24
  1.9900000E-03    9.9999963E-25
  2.0250001E-03    1.0000001E-24
  2.0600001E-03    1.0000011E-24
  2.0949999E-03    9.9999992E-25
  2.1299999E-03    9.9999884E-25
  2.1650000E-03    1.0000003E-24
  2.2000000E-03    1.0000019E-24
  2.2350000E-03    1.0000006E-24
  2.2700001E-03    9.9999893E-25
  2.3050001E-03    9.9999972E-25
  2.3399999E-03    1.0000012E-24
  2.3749999E-03    1.0000006E-24
  2.4100000E-03    9.9999864E-25
  2.4450000E-03    9.9999903E-25
  2.4800000E-03    1.0000011E-24
  2.5150001E-03    1.0000014E-24
  2.5500001E-03    9.9999963E-25
  2.5849999E-03    9.9999913E-25
  2.6199999E-03    9.9999982E-25
  2.6550000E-03    1.0000002E-24
  2.6900000E-03    1.0000002E-24
  2.7250000E-03    9.9999893E-25
  2.7600001E-03    9.9999893E-25
  2.7950001E-03    1.0000018E-24
  2.8299999E-03    1.0000024E-24
  2.8649999E-03    9.9999933E-25
  2.9000000E-03    9.9999893E-25
  2.9350000E-03    1.0000011E-24
  2.9700000E-03    1.0000002E-24
  3.0050001E-03    9.9999923E-25
  3.0400001E-03    1.0000008E-24
  3.0749999E-03    1.0000000E-24
  3.1099999E-03    9.9999765E-25
  3.1450000E-03    9.9999963E-25
  3.1800000E-03    1.0000017E-24
  3.2150000E-03    9.9999933E-25
  3.2500001E-03    9.9999893E-25
  3.2850001E-03    1.0000027E-24
  3.3199999E-03    1.0000019E-24
  3.3549999E-03    9.9999755E-25
  3.3900000E-03    9.9999874E-25
  3.4250000E-03    1.0000027E-24
  3.4600000E-03    1.0000015E-24
  3.4950001E-03    9.9999795E-25
  3.5300001E-03    9.9999893E-25
  3.5649999E-03    1.0000011E-24
  3.5999999E-03    1.0000003E-24
  3.6350000E-03    9.9999963E-25
  3.6700000E-03    1.0000001E-24
  3.7050000E-03    9.9999982E-25
  3.7400001E-03    9.9999972E-25
  3.7750001E-03    1.0000000E-24
  3.8099999E-03    9.9999982E-25
  3.8449999E-03    1.0000011E-24
  3.8800000E-03    1.0000021E-24
  3.9149998E-03    9.9999953E-25
  3.9499998E-03    9.9999795E-25
  3.9849998E-03    1.0000002E-24
  4.0199999E-03    9.9999992E-25
  4.0549999E-03    9.9999765E-25
  4.0899999E-03    1.0000010E-24
  4.1250000E-03    1.0000040E-24
  4.1600000E-03    9.9999963E-25
  4.1950000E-03    9.9999726E-25
  4.2300001E-03    1.0000012E-24
  4.2650001E-03    1.0000017E-24
  4.3000001E-03    9.9999903E-25
  4.3350002E-03    9.9999982E-25
  4.3700002E-03    1.0000014E-24
  4.4049998E-03    9.9999982E-25
  4.4399998E-03    9.9999746E-25
  4.4749998E-03    9.9999854E-25
  4.5099999E-03    1.0000008E-24
  4.5449999E-03    1.0000004E-24
  4.5799999E-03    9.9999923E-25
  4.6150000E-03    1.0000005E-24
  4.6500000E-03    1.0000013E-24
  4.6850001E-03    1.0000003E-24
  4.7200001E-03    1.0000004E-24
  4.7550001E-03    1.0000007E-24
  4.7900002E-03    9.9999982E-25
  4.8250002E-03    1.0000001E-24
  4.8600002E-03    1.0000003E-24
  4.8949998E-03    9.9999943E-25
  4.9299998E-03    9.9999933E-25
  4.9649999E-03    1.0000001E-24
  4.9999999E-03    1.0000013E-24
  5.0349999E-03    9.9999953E-25
  5.0700000E-03    9.9999854E-25
  5.1050000E-03    1.0000002E-24
  5.1400000E-03    1.0000024E-24
  5.1750001E-03    1.0000060E-24
  5.2100001E-03    1.0000004E-24
  5.2450001E-03    1.0000009E-24
  5.2800002E-03    1.0000022E-24
  5.3150002E-03    9.9999884E-25
  5.3500002E-03    9.9999864E-25
  5.3849998E-03    1.0000102E-24
  5.4199998E-03    1.0000033E-24
  5.4549999E-03    1.0000170E-24
  5.4899999E-03    1.0000138E-24
  5.5249999E-03    1.0000012E-24
  5.5600000E-03    1.0000053E-24
  5.5950000E-03    1.0000126E-24
  5.6300000E-03    9.9992685E-25
  5.6650001E-03    9.9998128E-25
  5.7000001E-03    9.9995081E-25
  5.7350001E-03    9.9980852E-25
  5.7700002E-03    1.0000744E-24
  5.8050002E-03    9.9995101E-25
  5.8400002E-03    9.9967156E-25
  5.8749998E-03    9.9973782E-25
  5.9099998E-03    9.9997685E-25
  5.9449999E-03    1.0009689E-24
  5.9799999E-03    9.9959494E-25
  6.0149999E-03    9.9859930E-25
  6.0500000E-03    1.0001925E-24
  6.0850000E-03    1.0009284E-24
  6.1200000E-03    9.9810350E-25
  6.1550001E-03    9.9995318E-25
  6.1900001E-03    1.0016181E-24
  6.2250001E-03    9.9751067E-25
  6.2600002E-03    9.9154945E-25
  6.2950002E-03    1.0005481E-24
  6.3299998E-03    1.0038929E-24
  6.3649998E-03    1.0043153E-24
  6.3999998E-03    9.9708301E-25
  6.4349999E-03    9.8825506E-25
  6.4699999E-03    9.9773530E-25
  6.5049999E-03    1.0146709E-24
  6.5400000E-03    1.0086452E-24
  6.5750000E-03    9.7154216E-25
  6.6100000E-03    9.9151868E-25
  6.6450001E-03    1.0266036E-24
  6.6800001E-03    1.0181909E-24
  6.7150001E-03    9.0616334E-25
  6.7500002E-03    9.2914069E-25
  6.7850002E-03    9.9422842E-25
  6.8199998E-03    9.2068883E-25
  6.8549998E-03    1.0333084E-24
  6.8899998E-03    1.1090178E-24
  6.9249999E-03    1.0540703E-24
  6.9599999E-03    1.1060913E-24
  6.9949999E-03    1.0508114E-24
  7.0300000E-03    6.5056762E-25
  7.0650000E-03    1.0524982E-24
  7.1000000E-03    1.3574265E-24
  7.1350001E-03    7.0795785E-25
  7.1700001E-03    4.5269809E-25
  7.2050001E-03    1.1296320E-24
  7.2400002E-03    2.3038476E-24
  7.2750002E-03    7.2852488E-25
  7.3099998E-03    2.2533336E-25
  7.3449998E-03    1.3424533E-24
  7.3799998E-03    2.3733488E-24
  7.4149999E-03    1.3293705E-24
  7.4499999E-03    2.4843579E-25
  7.4850000E-03    3.1691773E-24
  7.5200000E-03    3.1172971E-24
  7.5550000E-03   -1.8178361E-24
  7.5900001E-03   -1.9101884E-24
  7.6250001E-03    9.5361441E-25
  7.6600001E-03    5.3610889E-26
  7.6950002E-03   -1.3858401E-24
  7.7300002E-03    6.9910226E-24
  7.7650002E-03    1.0403087E-23
  7.7999998E-03   -2.0570498E-23
  7.8349998E-03   -2.7273367E-23
  7.8699999E-03   -2.4486769E-24
  7.9049999E-03    1.7477414E-23
  7.9399999E-03   -5.1538429E-24
  7.9750000E-03   -5.6318303E-24
  8.0100000E-03    4.7437267E-24
  8.0450000E-03    3.4003849E-23
  8.0800001E-03   -1.8793631E-23
  8.1150001E-03   -7.6529113E-23
  8.1500001E-03    5.6903661E-23
  8.1850002E-03    1.1700953E-22
  8.2200002E-03    1.3934251E-22
  8.2550002E-03    4.3838278E-23
  8.2900003E-03   -2.4258910E-23
  8.3250003E-03    1.2541114E-22
  8.3600003E-03    6.8295122E-23
  8.3950004E-03    5.2845893E-23
  8.4300004E-03   -3.4816021E-24
  8.4650004E-03   -1.2203313E-22
  8.5000005E-03   -1.4557321E-22
  8.5349996E-03    3.0695683E-22
  8.5699996E-03    2.5858674E-22
  8.6049996E-03   -3.2712547E-22
  8.6399997E-03   -1.4657895E-22
  8.6749997E-03    1.3390680E-22
  8.7099997E-03    1.7651607E-22
  8.7449998E-03   -3.9515918E-22
  8.7799998E-03   -1.6069075E-22
  8.8149998E-03    4.0278849E-22
  8.8499999E-03   -2.4215170E-22
  8.8849999E-03   -5.8461247E-22
  8.9199999E-03   -2.8794352E-22
  8.9550000E-03   -2.3800691E-22
  8.9900000E-03   -4.7112687E-22
  9.0250000E-03    2.4169495E-21
  9.0600001E-03    9.5165645E-22
  9.0950001E-03   -3.5682132E-21
  9.1300001E-03   -1.2894213E-21
  9.1650002E-03    1.1729999E-20
  9.2000002E-03    5.5943643E-21
  9.2350002E-03   -1.6576746E-20
  9.2700003E-03   -1.3950895E-20
  9.3050003E-03    9.7737989E-21
  9.3400003E-03    1.1711892E-20
  9.3750004E-03    4.6304585E-22
  9.4100004E-03   -1.0921140E-20
  9.4450004E-03   -6.8684062E-21
  9.4799995E-03    1.8400481E-20
  9.5149996E-03    1.7186330E-20
  9.5499996E-03   -2.8273211E-20
  9.5849996E-03   -3.9096104E-20
  9.6199997E-03    1.9829813E-20
  9.6549997E-03    2.9647026E-20
  9.6899997E-03   -8.5639632E-21
  9.7249998E-03   -8.1241783E-20
  9.7599998E-03   -1.6329297E-20
  9.7949998E-03    1.1408686E-19
  9.8299999E-03    5.1926896E-20
  9.8649999E-03   -9.3275852E-20
  9.8999999E-03   -8.1240775E-20
  9.9350000E-03    5.4165063E-20
  9.9700000E-03    8.9160105E-20
  1.0005000E-02   -7.0629844E-20
  1.0040000E-02   -2.1554976E-19
  1.0075000E-02    1.3573538E-20
  1.0110000E-02    2.7809122E-19
  1.0145000E-02    1.1937052E-19
  1.0180000E-02   -3.7464080E-19
  1.0215000E-02   -4.3358804E-19
  1.0250000E-02    2.2932947E-19
  1.0285000E-02    6.8730871E-19
  1.0320000E-02   -1.0239710E-19
  1.0355000E-02   -1.1000505E-18
  1.0390000E-02   -2.8899948E-19
  1.0425000E-02    1.2462081E-18
  1.0460000E-02    5.0789706E-19
  1.0495000E-02   -1.1016459E-18
  1.0530000E-02   -1.0933914E-18
  1.0565000E-02    6.3148741E-19
  1.0600000E-02    1.6322557E-18
  1.0635000E-02    2.5924991E-19
  1.0670000E-02   -2.5618350E-18
  1.0705000E-02   -1.2618601E-18
  1.0740000E-02    2.9545585E-18
  1.0775000E-02    2.4343621E-18
  1.0810000E-02   -3.4424292E-18
  1.0845000E-02   -3.8471844E-18
  1.0880000E-02    2.1356714E-18
  1.0915000E-02    4.9310279E-18
  1.0950000E-02   -1.4962864E-18
  1.0985000E-02   -7.5548424E-18
  1.1020000E-02   -1.0302027E-18
  1.1055000E-02    8.4907269E-18
  1.1090000E-02    3.7975812E-18
  1.1125000E-02   -8.6931794E-18
  1.1160000E-02   -5.5491167E-18
  1.1195000E-02    1.0679224E-17
  1.1230000E-02    1.0640420E-17
  1.1265000E-02   -6.9826402E-18
  1.1300000E-02   -1.6214839E-17
  1.1335000E-02    2.2693541E-18
  1.1370000E-02    2.2954806E-17
  1.1405000E-02    9.0352293E-18
  1.1440000E-02   -2.5425917E-17
  1.1475000E-02   -1.7114812E-17
  1.1510000E-02    2.5877503E-17
  1.1545000E-02    2.7389899E-17
  1.1580000E-02   -2.3135104E-17
  1.1615000E-02   -3.9953327E-17
  1.1650000E-02    1.2619295E-17
  1.1685000E-02    4.7889115E-17
  1.1720000E-02   -2.1017661E-18
  1.1755000E-02   -6.3102479E-17
  1.1790000E-02   -2.3124334E-17
  1.1825000E-02    6.1696232E-17
  1.1860000E-02    4.9830234E-17
  1.1895000E-02   -6.2748770E-17
  1.1930000E-02   -8.4222637E-17
  1.1965000E-02    5.3559309E-17
  1.2000000E-02    1.1945657E-16
  1.2035000E-02   -3.8463501E-17
  1.2070000E-02   -1.6459246E-16
  1.2105000E-02   -9.5142827E-18
  1.2140000E-02    1.9523997E-16
  1.2175000E-02    8.2429243E-17
  1.2210000E-02   -2.1301777E-16
  1.2245000E-02   -1.6618523E-16
  1.2280000E-02    2.1407937E-16
  1.2315000E-02    2.8133085E-16
  1.2350000E-02   -1.7128502E-16
  1.2385000E-02   -4.0023231E-16
  1.2420000E-02    8.8227177E-17
  1.2455000E-02    5.3267694E-16
  1.2490000E-02    7.5347981E-17
  1.2525000E-02   -6.4075433E-16
  1.2560000E-02   -3.0048322E-16
  1.2595000E-02    7.0734673E-16
  1.2630000E-02    6.2328814E-16
  1.2665000E-02   -6.3525999E-16
  1.2700000E-02   -9.7314694E-16
  1.2735000E-02    4.2880027E-16
  1.2770000E-02    1.3335583E-15
  1.2805000E-02   -4.7522463E-17
  1.2840000E-02   -1.6338003E-15
  1.2875000E-02   -4.7432278E-16
  1.2910000E-02    1.9008387E-15
  1.2945000E-02    1.3050371E-15
  1.2980000E-02   -1.8584333E-15
  1.3015000E-02   -2.2418847E-15
  1.3050000E-02    1.4782876E-15
  1.3085000E-02    3.3032709E-15
  1.3120000E-02   -5.3195834E-16
  1.3155000E-02   -4.1151190E-15
  1.3190000E-02   -7.9372361E-16
  1.3225000E-02    4.7033398E-15
  1.3260000E-02    2.6845665E-15
  1.3295000E-02   -4.6790926E-15
  1.3330000E-02   -4.9160365E-15
  1.3365000E-02    3.8343526E-15
  1.3400000E-02    7.2762214E-15
  1.3435000E-02   -1.9179509E-15
  1.3470000E-02   -9.4202837E-15
  1.3505000E-02   -1.2120679E-15
  1.3540000E-02    1.0702160E-14
  1.3575000E-02    5.2295818E-15
  1.3610000E-02   -1.0884240E-14
  1.3645000E-02   -1.0130180E-14
  1.3680000E-02    9.2238025E-15
  1.3715000E-02    1.5172264E-14
  1.3750000E-02   -5.4263722E-15
  1.3785000E-02   -1.9612008E-14
  1.3820000E-02   -5.7748298E-16
  1.3855000E-02    2.2532521E-14
  1.3890000E-02    8.5994749E-15
  1.3925000E-02   -2.3066688E-14
  1.3960000E-02   -1.8043149E-14
  1.3995000E-02    2.0298391E-14
  1.4030000E-02    2.7913146E-14
  1.4065000E-02   -1.3627482E-14
  1.4100000E-02   -3.6889491E-14
  1.4135000E-02    2.8343491E-15
  1.4170000E-02    4.3400389E-14
  1.4205000E-02    1.1720438E-14
  1.4240000E-02   -4.5873061E-14
  1.4275000E-02   -2.9031173E-14
  1.4310000E-02    4.3010697E-14
  1.4345000E-02    4.7831022E-14
  1.4380000E-02   -3.3546699E-14
  1.4415000E-02   -6.6084508E-14
  1.4450000E-02    1.7025257E-14
  1.4485000E-02    8.1716907E-14
  1.4520000E-02    6.8289317E-15
  1.4555000E-02   -9.2080423E-14
  1.4590000E-02   -3.7308854E-14
  1.4625000E-02    9.4748855E-14
  1.4660000E-02    7.3433969E-14
  1.4695000E-02   -8.6584203E-14
  1.4730000E-02   -1.1263265E-13
  1.4765000E-02    6.5135946E-14
  1.4800000E-02    1.5182328E-13
  1.4835000E-02   -2.7728404E-14
  1.4870000E-02   -1.8596293E-13
  1.4905000E-02   -2.7106342E-14
  1.4940000E-02    2.0880982E-13
  1.4975000E-02    9.9567327E-14
  1.5010000E-02   -2.1194793E-13
  1.5045000E-02   -1.8670586E-13
  1.5080000E-02    1.8630063E-13
  1.5115000E-02    2.8181052E-13
  1.5150000E-02   -1.2266543E-13
  1.5185000E-02   -3.7284352E-13
  1.5220000E-02    1.4369784E-14
  1.5255000E-02    4.4241794E-13
  1.5290000E-02    1.4009028E-13
  1.5325000E-02   -4.6866059E-13
  1.5360000E-02   -3.3372686E-13
  1.5395000E-02    4.2805627E-13
  1.5430000E-02    5.4903684E-13
  1.5465000E-02   -2.9841562E-13
  1.5500000E-02   -7.5457869E-13
  1.5535000E-02    6.7440662E-14
  1.5570000E-02    9.0881713E-13
  1.5605000E-02    2.6370028E-13
  1.5640000E-02   -9.6196759E-13
  1.5675001E-02   -6.7162909E-13
  1.5710000E-02    8.6590349E-13
  1.5745001E-02    1.1091452E-12
  1.5780000E-02   -5.8380384E-13
  1.5814999E-02   -1.5055474E-12
  1.5850000E-02    1.0243520E-13
  1.5884999E-02    1.7728434E-12
  1.5920000E-02    5.5609364E-13
  1.5954999E-02   -1.8184103E-12
  1.5990000E-02   -1.3268468E-12
  1.6024999E-02    1.5637936E-12
  1.6060000E-02    2.1022194E-12
  1.6094999E-02   -9.6461890E-13
  1.6130000E-02   -2.7409750E-12
  1.6164999E-02    3.0115247E-14
  1.6200000E-02    3.0866937E-12
  1.6235000E-02    1.1632840E-12
  1.6270000E-02   -2.9944354E-12
  1.6305000E-02   -2.4674956E-12
  1.6340001E-02    2.3643025E-12
  1.6375000E-02    3.6748972E-12
  1.6410001E-02   -1.1713218E-12
  1.6445000E-02   -4.5426844E-12
  1.6480001E-02   -5.1032209E-13
  1.6515000E-02    4.8316329E-12
  1.6550001E-02    2.4981798E-12
  1.6585000E-02   -4.3517447E-12
  1.6620001E-02   -4.5098036E-12
  1.6655000E-02    3.0111506E-12
  1.6690001E-02    6.1945115E-12
  1.6725000E-02   -8.5465294E-13
  1.6759999E-02   -7.1841803E-12
  1.6795000E-02   -1.9151824E-12
  1.6829999E-02    7.1576660E-12
  1.6865000E-02    4.9417844E-12
  1.6899999E-02   -5.9105013E-12
  1.6935000E-02   -7.7489395E-12
  1.6969999E-02    3.4163787E-12
  1.7005000E-02    9.8035781E-12
  1.7039999E-02    1.3143555E-13
  1.7075000E-02   -1.0603081E-11
  1.7109999E-02   -4.3124480E-12
  1.7145000E-02    9.7735518E-12
  1.7180000E-02    8.5120157E-12
  1.7215000E-02   -7.1632318E-12
  1.7250000E-02   -1.1996683E-11
  1.7285001E-02    2.9128958E-12
  1.7320000E-02    1.4026506E-11
  1.7355001E-02    2.5141636E-12
  1.7390000E-02   -1.3991016E-11
  1.7425001E-02   -8.3583869E-12
  1.7460000E-02    1.1546260E-11
  1.7495001E-02    1.3650741E-11
  1.7530000E-02   -6.7271297E-12
  1.7565001E-02   -1.7355608E-11
  1.7600000E-02    8.7970953E-15
  1.7635001E-02    1.8553268E-11
  1.7670000E-02    7.7052973E-12
  1.7704999E-02   -1.6632374E-11
  1.7740000E-02   -1.5177410E-11
  1.7774999E-02    1.1463615E-11
  1.7810000E-02    2.1018798E-11
  1.7844999E-02   -3.5042019E-12
  1.7880000E-02   -2.3933555E-11
  1.7914999E-02   -6.1951581E-12
  1.7950000E-02    2.2986942E-11
  1.7984999E-02    1.6102931E-11
  1.8020000E-02   -1.7847760E-11
  1.8054999E-02   -2.4440562E-11
  1.8090000E-02    8.9412566E-12
  1.8124999E-02    2.9502123E-11
  1.8160000E-02    2.5285028E-12
  1.8195000E-02   -3.0013589E-11
  1.8230001E-02   -1.4724754E-11
  1.8265000E-02    2.5448803E-11
  1.8300001E-02    2.5484323E-11
  1.8335000E-02   -1.6220480E-11
  1.8370001E-02   -3.2734086E-11
  1.8405000E-02    3.6806309E-12
  1.8440001E-02    3.4928140E-11
  1.8475000E-02    1.0088342E-11
  1.8510001E-02   -3.1402460E-11
  1.8545000E-02   -2.2660604E-11
  1.8580001E-02    2.2554120E-11
  1.8615000E-02    3.1750699E-11
  1.8650001E-02   -9.7921072E-12
  1.8685000E-02   -3.5682186E-11
  1.8719999E-02   -4.7408535E-12
  1.8755000E-02    3.3726133E-11
  1.8789999E-02    1.8614067E-11
  1.8825000E-02   -2.6215948E-11
  1.8859999E-02   -2.9604735E-11
  1.8895000E-02    1.4412913E-11
  1.8929999E-02    3.6098527E-11
  1.8965000E-02   -1.9699712E-13
  1.8999999E-02   -3.7330652E-11
  1.9035000E-02   -1.4342015E-11
  1.9069999E-02    3.3414400E-11
  1.9105000E-02    2.7292059E-11
  1.9140000E-02   -2.5189063E-11
  1.9175000E-02   -3.7210904E-11
  1.9210000E-02    1.3935972E-11
  1.9245001E-02    4.3222603E-11
  1.9280000E-02   -1.1052457E-12
  1.9315001E-02   -4.4963842E-11
  1.9350000E-02   -1.1851450E-11
  1.9385001E-02    4.2495511E-11
  1.9420000E-02    2.3564822E-11
  1.9455001E-02   -3.6221224E-11
  1.9490000E-02   -3.2871074E-11
  1.9525001E-02    2.6792287E-11
  1.9560000E-02    3.8737461E-11
  1.9595001E-02   -1.5050766E-11
  1.9630000E-02   -4.0155847E-11
  1.9664999E-02    2.2705123E-12
  1.9700000E-02    3.6398193E-11
  1.9734999E-02    9.7390325E-12
  1.9770000E-02   -2.7286657E-11
  1.9804999E-02   -1.9053795E-11
  1.9840000E-02    1.3351533E-11
  1.9874999E-02    2.3716935E-11
  1.9910000E-02    4.0141926E-12
  1.9944999E-02   -2.1927599E-11
  1.9980000E-02   -2.2324297E-11
  2.0014999E-02    1.2811431E-11
  2.0050000E-02    3.8275844E-11
  2.0085000E-02    2.7112980E-12
  2.0120000E-02   -4.8771241E-11
  2.0155000E-02   -2.2410159E-11
  2.0190001E-02    5.1155816E-11
  2.0225000E-02    4.2125720E-11
  2.0260001E-02   -4.4352539E-11
  2.0295000E-02   -5.7023927E-11
  2.0330001E-02    3.0319299E-11
  2.0365000E-02    6.2561262E-11
  2.0400001E-02   -1.4110476E-11
  2.0435000E-02   -5.8039542E-11
  2.0470001E-02    4.2457316E-13
  2.0505000E-02    4.2840936E-11
  2.0540001E-02    4.3953170E-12
  2.0575000E-02   -1.9224164E-11
  2.0609999E-02    5.2904885E-12
  2.0645000E-02   -3.2530766E-12
  2.0679999E-02   -2.8483185E-11
  2.0715000E-02    1.7460432E-11
  2.0749999E-02    6.0642102E-11
  2.0785000E-02   -1.6020043E-11
  2.0819999E-02   -9.3019217E-11
  2.0855000E-02    1.3336480E-12
  2.0889999E-02    1.1881129E-10
  2.0925000E-02    2.4899782E-11
  2.0959999E-02   -1.2890795E-10
  2.0995000E-02   -5.7824946E-11
  2.1029999E-02    1.1410747E-10
  2.1065000E-02    8.3809043E-11
  2.1100000E-02   -8.2070975E-11
  2.1135001E-02   -9.3269566E-11
  2.1170000E-02    4.4646013E-11
  2.1205001E-02    8.0638517E-11
  2.1240000E-02   -1.6806910E-11
  2.1275001E-02   -5.1986446E-11
  2.1310000E-02   -3.6083979E-12
  2.1345001E-02    8.5731578E-12
  2.1380000E-02   -4.1020178E-12
  2.1415001E-02    3.1048910E-11
  2.1450000E-02    2.1403261E-11
  2.1485001E-02   -6.5340830E-11
  2.1520000E-02   -3.3762947E-11
  2.1555001E-02    1.1303582E-10
  2.1590000E-02    7.1964538E-11
  2.1624999E-02   -1.4278853E-10
  2.1660000E-02   -1.2903205E-10
  2.1694999E-02    1.0999746E-10
  2.1730000E-02    1.2163692E-10
  2.1764999E-02   -1.1880083E-10
  2.1800000E-02   -9.2330150E-11
  2.1834999E-02    1.5876141E-10
  2.1870000E-02    1.0795428E-10
  2.1904999E-02   -1.7040647E-10
  2.1940000E-02   -1.3774715E-10
  2.1974999E-02    1.5138626E-10
  2.2010000E-02    1.7648823E-10
  2.2045000E-02   -1.0184737E-10
  2.2080000E-02   -1.7332862E-10
  2.2115000E-02    6.7777631E-11
  2.2150001E-02    1.5291925E-10
  2.2185000E-02   -8.9933623E-11
  2.2220001E-02   -1.6784527E-10
  2.2255000E-02    4.6927580E-11
  2.2290001E-02    1.7774884E-10
  2.2325000E-02   -4.5508194E-11
  2.2360001E-02   -7.9634015E-11
  2.2395000E-02    1.0364875E-10
  2.2430001E-02    1.4810255E-11
  2.2465000E-02   -9.5795906E-11
  2.2500001E-02    4.3501886E-11
  2.2535000E-02    4.7396094E-11
  2.2569999E-02   -1.5120624E-10
  2.2605000E-02   -6.9288887E-11
  2.2639999E-02    2.4731328E-10
  2.2675000E-02    2.9710792E-10
  2.2709999E-02   -1.2024917E-10
  2.2745000E-02   -3.0207137E-10
  2.2779999E-02    4.2532009E-11
  2.2815000E-02    2.8805278E-10
  2.2849999E-02   -1.3483895E-10
  2.2885000E-02   -4.5877085E-10
  2.2919999E-02   -2.8079081E-11
  2.2955000E-02    4.1722825E-10
  2.2990000E-02    2.0233938E-10
  2.3025000E-02   -7.8769900E-11
  2.3060000E-02   -2.1938611E-10
  2.3095001E-02   -3.8449039E-11
  2.3130000E-02    6.5252449E-11
  2.3165001E-02   -1.4236294E-10
  2.3200000E-02    1.0287016E-10
  2.3235001E-02    4.5040632E-10
  2.3270000E-02   -1.0373463E-10
  2.3305001E-02   -2.4100494E-10
  2.3340000E-02    4.2007892E-10
  2.3375001E-02    1.1478425E-10
  2.3410000E-02   -7.3344519E-10
  2.3445001E-02   -6.3543552E-11
  2.3480000E-02    5.5028321E-10
  2.3514999E-02   -8.1067153E-11
  2.3550000E-02   -2.5725899E-10
  2.3584999E-02    4.4634829E-10
  2.3620000E-02    2.9096947E-10
  2.3654999E-02   -4.5250184E-10
  2.3690000E-02   -1.7291280E-10
  2.3724999E-02    2.3027784E-10
  2.3760000E-02   -2.0498868E-10
  2.3794999E-02   -6.5214434E-10
  2.3830000E-02   -3.5572015E-10
  2.3864999E-02    4.2781498E-10
  2.3900000E-02    1.1585707E-09
  2.3934999E-02   -1.4072455E-13
  2.3970000E-02   -1.3420028E-09
  2.4005000E-02    2.4549248E-11
  2.4040001E-02    1.2082843E-09
  2.4075000E-02   -4.0282250E-10
  2.4110001E-02   -5.4352256E-10
  2.4145000E-02    1.1814972E-09
  2.4180001E-02    4.5958684E-10
  2.4215000E-02   -1.1103628E-09
  2.4250001E-02    1.8223729E-10
  2.4285000E-02    9.1754487E-10
  2.4320001E-02   -3.2773090E-10
  2.4355000E-02    3.1903785E-10
  2.4390001E-02    7.4238526E-10
  2.4425000E-02   -8.0439877E-10
  2.4460001E-02   -1.4508889E-09
  2.4495000E-02   -1.1488004E-10
  2.4529999E-02    1.4247348E-09
  2.4565000E-02    3.9877496E-10
  2.4599999E-02   -1.7477839E-09
  2.4635000E-02   -5.8229666E-10
  2.4669999E-02    1.3558279E-09
  2.4705000E-02   -9.0168711E-10
  2.4739999E-02   -1.9392679E-09
  2.4775000E-02    1.6451609E-09
  2.4809999E-02    1.9359618E-09
  2.4845000E-02   -1.8868547E-09
  2.4879999E-02   -1.2112457E-09
  2.4915000E-02    1.7163576E-09
  2.4950000E-02    5.2168719E-10
  2.4985000E-02   -1.1803686E-09
  2.5020000E-02    3.1578096E-10
  2.5055001E-02    8.8388713E-10
  2.5090000E-02   -6.4904154E-10
  2.5125001E-02   -7.6371143E-10
  2.5160000E-02    9.4666538E-11
  2.5195001E-02   -6.3686201E-10
  2.5230000E-02   -8.1424650E-10
  2.5265001E-02    1.1615348E-09
  2.5300000E-02    2.0163813E-09
  2.5335001E-02    1.9627826E-10
  2.5370000E-02   -1.2303843E-09
  2.5405001E-02   -7.2188877E-10
  2.5440000E-02    5.8011762E-10
  2.5474999E-02    6.7882239E-10
  2.5510000E-02   -1.1338328E-09
  2.5544999E-02   -2.1271507E-09
  2.5580000E-02   -3.2364464E-10
  2.5614999E-02    1.1269340E-09
  2.5650000E-02   -1.9267053E-10
  2.5684999E-02   -1.1158128E-09
  2.5720000E-02    3.8883960E-10
  2.5754999E-02    1.3018882E-09
  2.5790000E-02   -3.5181491E-10
  2.5824999E-02   -1.8363960E-09
  2.5860000E-02   -7.4672303E-11
  2.5895000E-02    2.2492510E-09
  2.5930000E-02    9.6557351E-10
  2.5965000E-02   -7.9539536E-10
  2.6000001E-02   -3.3264178E-10
  2.6035000E-02    5.5302729E-10
  2.6070001E-02    6.6624944E-10
  2.6105000E-02    1.9601856E-10
  2.6140001E-02   -1.1782300E-09
  2.6175000E-02   -8.8063407E-10
  2.6210001E-02   -4.9464426E-12
  2.6245000E-02   -9.6765695E-10
  2.6280001E-02   -5.4256333E-10
  2.6315000E-02    9.5764829E-10
  2.6350001E-02   -1.4043720E-09
  2.6385000E-02   -2.6296423E-09
  2.6419999E-02    1.3403506E-09
  2.6455000E-02    2.2105862E-09
  2.6489999E-02   -3.9416484E-10
  2.6525000E-02    8.2364010E-10
  2.6559999E-02    2.0362037E-09
  2.6595000E-02   -1.1520580E-09
  2.6629999E-02   -2.6625611E-09
  2.6665000E-02   -9.8384834E-10
  2.6699999E-02    7.5880313E-10
  2.6735000E-02    2.1579334E-09
  2.6769999E-02    8.3998120E-10
  2.6805000E-02   -1.8528804E-09
  2.6839999E-02   -1.2267277E-09
  2.6875000E-02   -3.7556908E-10
  2.6910000E-02   -5.6108829E-10
  2.6945001E-02    1.1866205E-09
  2.6980000E-02    5.1255206E-10