 -4.8000002E-03    1.0000000E-24
 -4.7650002E-03    1.0000000E-24
 -4.7300002E-03    1.0000002E-24
 -4.6950001E-03    1.0000002E-24
 -4.6600001E-03    1.0000002E-24
 -4.6250001E-03    1.0000000E-24
 -4.5900000E-03    1.0000000E-24
 -4.5550000E-03    1.0000002E-24
 -4.5200000E-03    1.0000001E-24
 -4.4849999E-03    9.9999992E-25
 -4.4499999E-03    1.0000001E-24
 -4.4149999E-03    1.0000001E-24
 -4.3799998E-03    1.0000000E-24
 -4.3449998E-03    1.0000001E-24
 -4.3100002E-03    1.0000001E-24
 -4.2750002E-03    1.0000002E-24
 -4.2400002E-03    1.0000001E-24
 -4.2050001E-03    9.9999992E-25
 -4.1700001E-03    9.9999972E-25
 -4.1350001E-03    1.0000000E-24
 -4.1000000E-03    1.0000005E-24
 -4.0650000E-03    1.0000004E-24
 -4.0300000E-03    9.9999982E-25
 -3.9949999E-03    9.9999972E-25
 -3.9599999E-03    1.0000001E-24
 -3.9249999E-03    1.0000002E-24
 -3.8900001E-03    1.0000001E-24
 -3.8550000E-03    1.0000000E-24
 -3.8200000E-03    1.0000000E-24
 -3.7849999E-03    1.0000001E-24
 -3.7499999E-03    1.0000000E-24
 -3.7150001E-03    1.0000001E-24
 -3.6800001E-03    1.0000006E-24
 -3.6450000E-03    1.0000005E-24
 -3.6100000E-03    9.9999972E-25
 -3.5750000E-03    9.9999972E-25
 -3.5399999E-03    1.0000003E-24
 -3.5049999E-03    1.0000001E-24
 -3.4700001E-03    9.9999972E-25
 -3.4350001E-03    1.0000001E-24
 -3.4000000E-03    1.0000004E-24
 -3.3650000E-03    9.9999992E-25
 -3.3300000E-03    9.9999982E-25
 -3.2949999E-03    1.0000003E-24
 -3.2599999E-03    1.0000002E-24
 -3.2250001E-03    9.9999963E-25
 -3.1900001E-03    9.9999963E-25
 -3.1550000E-03    1.0000002E-24
 -3.1200000E-03    1.0000006E-24
 -3.0850000E-03    1.0000004E-24
 -3.0499999E-03    1.0000002E-24
 -3.0149999E-03    9.9999972E-25
 -2.9800001E-03    9.9999943E-25
 -2.9450001E-03    9.9999982E-25
 -2.9100000E-03    1.0000006E-24
 -2.8750000E-03    1.0000007E-24
 -2.8400000E-03    1.0000002E-24
 -2.8049999E-03    1.0000000E-24
 -2.7699999E-03    1.0000002E-24
 -2.7350001E-03    1.0000000E-24
 -2.7000001E-03    9.9999972E-25
 -2.6650000E-03    1.0000001E-24
 -2.6300000E-03    1.0000004E-24
 -2.5950000E-03    1.0000001E-24
 -2.5599999E-03    9.9999992E-25
 -2.5249999E-03    9.9999992E-25
 -2.4900001E-03    1.0000004E-24
 -2.4550001E-03    1.0000005E-24
 -2.4200000E-03    1.0000002E-24
 -2.3850000E-03    1.0000000E-24
 -2.3500000E-03    9.9999982E-25
 -2.3149999E-03    9.9999992E-25
 -2.2799999E-03    1.0000005E-24
 -2.2450001E-03    1.0000005E-24
 -2.2100001E-03    1.0000002E-24
 -2.1750000E-03    1.0000002E-24
 -2.1400000E-03    9.9999992E-25
 -2.1050000E-03    9.9999923E-25
 -2.0699999E-03    9.9999923E-25
 -2.0349999E-03    1.0000002E-24
 -2.0000001E-03    1.0000006E-24
 -1.9650001E-03    1.0000004E-24
 -1.9300000E-03    1.0000006E-24
 -1.8950000E-03    1.0000007E-24
 -1.8600000E-03    1.0000000E-24
 -1.8250000E-03    9.9999903E-25
 -1.7900000E-03    9.9999963E-25
 -1.7550000E-03    1.0000010E-24
 -1.7199999E-03    1.0000010E-24
 -1.6850000E-03    9.9999992E-25
 -1.6500000E-03    9.9999933E-25
 -1.6150000E-03    9.9999953E-25
 -1.5800000E-03    9.9999972E-25
 -1.5450000E-03    9.9999982E-25
 -1.5100000E-03    1.0000007E-24
 -1.4750001E-03    1.0000011E-24
 -1.4400000E-03    1.0000005E-24
 -1.4050000E-03    1.0000000E-24
 -1.3700000E-03    1.0000005E-24
 -1.3350000E-03    1.0000006E-24
 -1.3000000E-03    9.9999923E-25
 -1.2650000E-03    9.9999824E-25
 -1.2300001E-03    9.9999913E-25
 -1.1950000E-03    1.0000004E-24
 -1.1600000E-03    1.0000005E-24
 -1.1250000E-03    1.0000008E-24
 -1.0900000E-03    1.0000010E-24
 -1.0550000E-03    9.9999992E-25
 -1.0200000E-03    9.9999884E-25
 -9.8500005E-04    9.9999992E-25
 -9.5000002E-04    1.0000013E-24
 -9.1499998E-04    1.0000010E-24
 -8.8000001E-04    9.9999992E-25
 -8.4499997E-04    9.9999963E-25
 -8.1000000E-04    9.9999992E-25
 -7.7500002E-04    9.9999972E-25
 -7.3999999E-04    9.9999972E-25
 -7.0500001E-04    1.0000009E-24
 -6.6999998E-04    1.0000015E-24
 -6.3500000E-04    1.0000004E-24
 -6.0000003E-04    9.9999864E-25
 -5.6499999E-04    9.9999824E-25
 -5.3000002E-04    9.9999982E-25
 -4.9499999E-04    1.0000012E-24
 -4.6000001E-04    1.0000007E-24
 -4.2500001E-04    9.9999953E-25
 -3.9000000E-04    9.9999943E-25
 -3.5500000E-04    1.0000001E-24
 -3.1999999E-04    1.0000011E-24
 -2.8499999E-04    1.0000011E-24
 -2.5000001E-04    1.0000000E-24
 -2.1499999E-04    9.9999864E-25
 -1.8000000E-04    9.9999903E-25
 -1.4500000E-04    1.0000006E-24
 -1.1000000E-04    1.0000018E-24
 -7.5000004E-05    1.0000018E-24
 -3.9999999E-05    1.0000010E-24
 -4.9999999E-06    9.9999923E-25
  2.9999999E-05    9.9999785E-25
  6.5000000E-05    9.9999884E-25
  9.9999997E-05    1.0000010E-24
  1.3499999E-04    1.0000017E-24
  1.7000000E-04    1.0000004E-24
  2.0500000E-04    9.9999923E-25
  2.3999999E-04    9.9999953E-25
  2.7500000E-04    1.0000005E-24
  3.1000000E-04    1.0000003E-24
  3.4500001E-04    9.9999933E-25
  3.8000001E-04    9.9999913E-25
  4.1499999E-04    1.0000000E-24
  4.4999999E-04    1.0000010E-24
  4.8500000E-04    1.0000009E-24
  5.2000000E-04    1.0000001E-24
  5.5499998E-04    9.9999923E-25
  5.9000001E-04    9.9999874E-25
  6.2499999E-04    9.9999963E-25
  6.6000002E-04    1.0000017E-24
  6.9500000E-04    1.0000017E-24
  7.3000003E-04    9.9999982E-25
  7.6500000E-04    9.9999903E-25
  7.9999998E-04    1.0000003E-24
  8.3500001E-04    1.0000008E-24
  8.6999999E-04    9.9999963E-25
  9.0500002E-04    9.9999943E-25
  9.4000000E-04    1.0000008E-24
  9.7499997E-04    1.0000010E-24
  1.0100000E-03    9.9999923E-25
  1.0450000E-03    9.9999824E-25
  1.0800000E-03    9.9999972E-25
  1.1150000E-03    1.0000015E-24
  1.1500000E-03    1.0000009E-24
  1.1849999E-03    9.9999893E-25
  1.2200000E-03    9.9999884E-25
  1.2550000E-03    1.0000005E-24
  1.2900000E-03    1.0000007E-24
  1.3250000E-03    9.9999953E-25
  1.3600000E-03    9.9999972E-25
  1.3950000E-03    1.0000009E-24
  1.4299999E-03    1.0000009E-24
  1.4650000E-03    1.0000001E-24
  1.5000000E-03    1.0000000E-24
  1.5350000E-03    1.0000005E-24
  1.5700000E-03    1.0000002E-24
  1.6050000E-03    9.9999943E-25
  1.6400000E-03    9.9999893E-25
  1.6749999E-03    9.9999972E-25
  1.7100000E-03    1.0000011E-24
  1.7450000E-03    1.0000014E-24
  1.7800000E-03    1.0000010E-24
  1.8150000E-03    1.0000000E-24
  1.8500000E-03    9.9999854E-25
  1.8850000E-03    9.9999824E-25
  1.9200000E-03    1.0000005E-24
  1.9550000E-03    1.0000022E-24
  1.9900000E-03    1.0000005E-24
  2.0250001E-03    9.9999884E-25
  2.0600001E-03    1.0000003E-24
  2.0949999E-03    1.0000020E-24
  2.1299999E-03    1.0000006E-24
  2.1650000E-03    9.9999864E-25
  2.2000000E-03    9.9999884E-25
  2.2350000E-03    9.9999992E-25
  2.2700001E-03    1.0000008E-24
  2.3050001E-03    1.0000008E-24
  2.3399999E-03    1.0000000E-24
  2.3749999E-03    9.9999933E-25
  2.4100000E-03    9.9999943E-25
  2.4450000E-03    9.9999953E-25
  2.4800000E-03    1.0000001E-24
  2.5150001E-03    1.0000014E-24
  2.5500001E-03    1.0000012E-24
  2.5849999E-03    9.9999972E-25
  2.6199999E-03    9.9999953E-25
  2.6550000E-03    1.0000005E-24
  2.6900000E-03    1.0000006E-24
  2.7250000E-03    9.9999972E-25
  2.7600001E-03    9.9999884E-25
  2.7950001E-03    9.9999953E-25
  2.8299999E-03    1.0000016E-24
  2.8649999E-03    1.0000023E-24
  2.9000000E-03    1.0000002E-24
  2.9350000E-03    9.9999824E-25
  2.9700000E-03    9.9999884E-25
  3.0050001E-03    1.0000008E-24
  3.0400001E-03    1.0000012E-24
  3.0749999E-03    1.0000001E-24
  3.1099999E-03    9.9999972E-25
  3.1450000E-03    1.0000001E-24
  3.1800000E-03    9.9999963E-25
  3.2150000E-03    9.9999903E-25
  3.2500001E-03    9.9999943E-25
  3.2850001E-03    1.0000010E-24
  3.3199999E-03    1.0000014E-24
  3.3549999E-03    9.9999982E-25
  3.3900000E-03    9.9999884E-25
  3.4250000E-03    1.0000004E-24
  3.4600000E-03    1.0000019E-24
  3.4950001E-03    1.0000008E-24
  3.5300001E-03    9.9999923E-25
  3.5649999E-03    9.9999943E-25
  3.5999999E-03    1.0000007E-24
  3.6350000E-03    1.0000005E-24
  3.6700000E-03    9.9999913E-25
  3.7050000E-03    9.9999903E-25
  3.7400001E-03    1.0000005E-24
  3.7750001E-03    1.0000009E-24
  3.8099999E-03    1.0000001E-24
  3.8449999E-03    1.0000001E-24
  3.8800000E-03    1.0000002E-24
  3.9149998E-03    9.9999982E-25
  3.9499998E-03    1.0000003E-24
  3.9849998E-03    9.9999992E-25
  4.0199999E-03    9.9999746E-25
  4.0549999E-03    9.9999834E-25
  4.0899999E-03    1.0000035E-24
  4.1250000E-03    1.0000032E-24
  4.1600000E-03    9.9999519E-25
  4.1950000E-03    9.9999499E-25
  4.2300001E-03    1.0000076E-24
  4.2650001E-03    1.0000092E-24
  4.3000001E-03    9.9998750E-25
  4.3350002E-03    9.9998266E-25
  4.3700002E-03    1.0000222E-24
  4.4049998E-03    1.0000354E-24
  4.4399998E-03    9.9996324E-25
  4.4749998E-03    9.9992853E-25
  4.5099999E-03    1.0000568E-24
  4.5449999E-03    1.0001428E-24
  4.5799999E-03    9.9992311E-25
  4.6150000E-03    9.9972707E-25
  4.6500000E-03    1.0000872E-24
  4.6850001E-03    1.0005069E-24
  4.7200001E-03    9.9994263E-25
  4.7550001E-03    9.9908622E-25
  4.7900002E-03    9.9992350E-25
  4.8250002E-03    1.0016050E-24
  4.8600002E-03    1.0004582E-24
  4.8949998E-03    9.9726573E-25
  4.9299998E-03    9.9863135E-25
  4.9649999E-03    1.0044998E-24
  4.9999999E-03    1.0033358E-24
  5.0349999E-03    9.9288331E-25
  5.0700000E-03    9.9268274E-25
  5.1050000E-03    1.0107104E-24
  5.1400000E-03    1.0149658E-24
  5.1750001E-03    9.8491858E-25
  5.2100001E-03    9.7097931E-25
  5.2450001E-03    1.0191972E-24
  5.2800002E-03    1.0538176E-24
  5.3150002E-03    9.7979719E-25
  5.3500002E-03    9.0415519E-25
  5.3849998E-03    1.0116475E-24
  5.4199998E-03    1.1641789E-24
  5.4549999E-03    1.0195808E-24
  5.4899999E-03    7.2971068E-25
  5.5249999E-03    9.0181326E-25
  5.5600000E-03    1.4263069E-24
  5.5950000E-03    1.2679936E-24
  5.6300000E-03    3.6000547E-25
  5.6650001E-03    3.9735759E-25
  5.7000001E-03    1.9034435E-24
  5.7350001E-03    2.2194578E-24
  5.7700002E-03   -1.7072233E-25
  5.8050002E-03   -1.2949266E-24
  5.8400002E-03    2.3174166E-24
  5.8749998E-03    5.0770555E-24
  5.9099998E-03   -7.2388798E-26
  5.9449999E-03   -5.8839786E-24
  5.9799999E-03    9.1002057E-25
  6.0149999E-03    1.2068243E-23
  6.0500000E-03    4.1087335E-24
  6.0850000E-03   -1.5910651E-23
  6.1200000E-03   -8.5526564E-24
  6.1550001E-03    2.5385306E-23
  6.1900001E-03    2.2883956E-23
  6.2250001E-03   -3.1708643E-23
  6.2600002E-03   -4.2724505E-23
  6.2950002E-03    4.0552752E-23
  6.3299998E-03    8.1014658E-23
  6.3649998E-03   -3.8776139E-23
  6.3999998E-03   -1.3584515E-22
  6.4349999E-03    2.4522658E-23
  6.4699999E-03    2.2157543E-22
  6.5049999E-03    2.7406501E-23
  6.5400000E-03   -3.3461485E-22
  6.5750000E-03   -1.3683405E-22
  6.6100000E-03    4.8094772E-22
  6.6450001E-03    3.5370930E-22
  6.6800001E-03   -6.3616157E-22
  6.7150001E-03   -7.2874097E-22
  6.7500002E-03    7.6449932E-22
  6.7850002E-03    1.3449987E-21
  6.8199998E-03   -7.6748073E-22
  6.8549998E-03   -2.2787273E-21
  6.8899998E-03    4.8926052E-22
  6.9249999E-03    3.6114677E-21
  6.9599999E-03    3.4838910E-22
  6.9949999E-03   -5.3570446E-21
  7.0300000E-03   -2.1491251E-21
  7.0650000E-03    7.4204684E-21
  7.1000000E-03    5.5006897E-21
  7.1350001E-03   -9.4484188E-21
  7.1700001E-03   -1.1141383E-20
  7.2050001E-03    1.0688374E-20
  7.2400002E-03    1.9929250E-20
  7.2750002E-03   -9.7245558E-21
  7.3099998E-03   -3.2636253E-20
  7.3449998E-03    4.2314170E-21
  7.3799998E-03    4.9627754E-20
  7.4149999E-03    9.3398982E-21
  7.4499999E-03   -7.0216919E-20
  7.4850000E-03   -3.5920341E-20
  7.5200000E-03    9.1738259E-20
  7.5550000E-03    8.1788724E-20
  7.5900001E-03   -1.0815330E-19
  7.6250001E-03   -1.5395483E-19
  7.6600001E-03    1.0832994E-19
  7.6950002E-03    2.5871806E-19
  7.7300002E-03   -7.4026073E-20
  7.7650002E-03   -3.9880512E-19
  7.7999998E-03   -2.1890962E-20
  7.8349998E-03    5.6870027E-19
  7.8699999E-03    2.1634860E-19
  7.9049999E-03   -7.4760155E-19
  7.9399999E-03   -5.5471471E-19
  7.9750000E-03    8.8998957E-19
  8.0100000E-03    1.0854814E-18
  8.0450000E-03   -9.1418264E-19
  8.0800001E-03   -1.8484862E-18
  8.1150001E-03    6.9061609E-19
  8.1500001E-03    2.8540711E-18
  8.1850002E-03   -3.3034078E-20
  8.2200002E-03   -4.0505314E-18
  8.2550002E-03   -1.3016851E-18
  8.2900003E-03    5.2786245E-18
  8.3250003E-03    3.5968919E-18
  8.3600003E-03   -6.2143478E-18
  8.3950004E-03   -7.1315608E-18
  8.4300004E-03    6.3062583E-18
  8.4650004E-03    1.2095027E-17
  8.5000005E-03   -4.7206842E-18
  8.5349996E-03   -1.8448477E-17
  8.5699996E-03    3.1840961E-19
  8.6049996E-03    2.5725486E-17
  8.6399997E-03    8.3020900E-18
  8.6749997E-03   -3.2774438E-17
  8.7099997E-03   -2.2647653E-17
  8.7449998E-03    3.7465650E-17
  8.7799998E-03    4.4004675E-17
  8.8149998E-03   -3.6415806E-17
  8.8499999E-03   -7.2890229E-17
  8.8849999E-03    2.4822803E-17
  8.9199999E-03    1.0824377E-16
  8.9550000E-03    3.4489155E-18
  8.9900000E-03   -1.4636553E-16
  9.0250000E-03   -5.5345401E-17
  9.0600001E-03    1.7968500E-16
  9.0950001E-03    1.3744448E-16
  9.1300001E-03   -1.9555865E-16
  9.1650002E-03   -2.5390893E-16
  9.2000002E-03    1.7544796E-16
  9.2350002E-03    4.0342766E-16
  9.2700003E-03   -9.5005525E-17
  9.3050003E-03   -5.7516523E-16
  9.3400003E-03   -7.4237845E-17
  9.3750004E-03    7.4402744E-16
  9.4100004E-03    3.6078709E-16
  9.4450004E-03   -8.6597192E-16
  9.4799995E-03   -7.8594250E-16
  9.5149996E-03    8.7463431E-16
  9.5499996E-03    1.3529156E-15
  9.5849996E-03   -6.8113810E-16
  9.6199997E-03   -2.0324236E-15
  9.6549997E-03    1.7949966E-16
  9.6899997E-03    2.7459017E-15
  9.7249998E-03    7.3968576E-16
  9.7599998E-03   -3.3489237E-15
  9.7949998E-03   -2.1648263E-15
  9.8299999E-03    3.6191956E-15
  9.8649999E-03    4.1267767E-15
  9.8999999E-03   -3.2553985E-15
  9.9350000E-03   -6.5509024E-15
  9.9700000E-03    1.8946757E-15
  1.0005000E-02    9.2019432E-15
  1.0040000E-02    8.4287465E-16
  1.0075000E-02   -1.1630504E-14
  1.0110000E-02   -5.2755622E-15
  1.0145000E-02    1.3135487E-14
  1.0180000E-02    1.1544064E-14
  1.0215000E-02   -1.2762178E-14
  1.0250000E-02   -1.9462008E-14
  1.0285000E-02    9.3594972E-15
  1.0320000E-02    2.8348009E-14
  1.0355000E-02   -1.7202236E-15
  1.0390000E-02   -3.6867909E-14
  1.0425000E-02   -1.1177419E-14
  1.0460000E-02    4.2931479E-14
  1.0495000E-02    2.9822024E-14
  1.0530000E-02   -4.3701405E-14
  1.0565000E-02   -5.3733232E-14
  1.0600000E-02    3.5780078E-14
  1.0635000E-02    8.0987781E-14
  1.0670000E-02   -1.5635637E-14
  1.0705000E-02   -1.0779623E-13
  1.0740000E-02   -1.9692715E-14
  1.0775000E-02    1.2825782E-13
  1.0810000E-02    7.1613898E-14
  1.0845000E-02   -1.3445140E-13
  1.0880000E-02   -1.3879888E-13
  1.0915000E-02    1.1702905E-13
  1.0950000E-02    2.1594801E-13
  1.0985000E-02   -6.6452798E-14
  1.1020000E-02   -2.9276546E-13
  1.1055000E-02   -2.5059319E-14
  1.1090000E-02    3.5348406E-13
  1.1125000E-02    1.6094014E-13
  1.1160000E-02   -3.7733526E-13
  1.1195000E-02   -3.3727760E-13
  1.1230000E-02    3.4034629E-13
  1.1265000E-02    5.3987576E-13
  1.1300000E-02   -2.1873792E-13
  1.1335000E-02   -7.4205209E-13
  1.1370000E-02   -6.0339756E-15
  1.1405000E-02    9.0401243E-13
  1.1440000E-02    3.4089214E-13
  1.1475000E-02   -9.7470502E-13
  1.1510000E-02   -7.7415835E-13
  1.1545000E-02    8.9691519E-13
  1.1580000E-02    1.2692045E-12
  1.1615000E-02   -6.1601294E-13
  1.1650000E-02   -1.7603915E-12
  1.1685000E-02    9.2131930E-14
  1.1720000E-02    2.1531854E-12
  1.1755000E-02    6.8528560E-13
  1.1790000E-02   -2.3302592E-12
  1.1825000E-02   -1.6826147E-12
  1.1860000E-02    2.1648724E-12
  1.1895000E-02    2.8098327E-12
  1.1930000E-02   -1.5417818E-12
  1.1965000E-02   -3.9146004E-12
  1.2000000E-02    3.8445365E-13
  1.2035000E-02    4.7864438E-12
  1.2070000E-02    1.3145323E-12
  1.2105000E-02   -5.1741571E-12
  1.2140000E-02   -3.4648391E-12
  1.2175000E-02    4.8180236E-12
  1.2210000E-02    5.8580146E-12
  1.2245000E-02   -3.4959030E-12
  1.2280000E-02   -8.1626216E-12
  1.2315000E-02    1.0790058E-12
  1.2350000E-02    9.9414635E-12
  1.2385000E-02    2.4103165E-12
  1.2420000E-02   -1.0695289E-11
  1.2455000E-02   -6.7495102E-12
  1.2490000E-02    9.9335011E-12
  1.2525000E-02    1.1488152E-11
  1.2560000E-02   -7.2670186E-12
  1.2595000E-02   -1.5954160E-11
  1.2630000E-02    2.5124740E-12
  1.2665000E-02    1.9303593E-11
  1.2700000E-02    4.2088763E-12
  1.2735000E-02   -2.0618096E-11
  1.2770000E-02   -1.2398151E-11
  1.2805000E-02    1.9045656E-11
  1.2840000E-02    2.1153312E-11
  1.2875000E-02   -1.3970846E-11
  1.2910000E-02   -2.9209600E-11
  1.2945000E-02    5.1909345E-12
  1.2980000E-02    3.5056943E-11
  1.3015000E-02    6.9332925E-12
  1.3050000E-02   -3.7133421E-11
  1.3085000E-02   -2.1386557E-11
  1.3120000E-02    3.4079250E-11
  1.3155000E-02    3.6500362E-11
  1.3190000E-02   -2.5020186E-11
  1.3225000E-02   -5.0068859E-11
  1.3260000E-02    9.8365387E-12
  1.3295000E-02    5.9586579E-11
  1.3330000E-02    1.0634005E-11
  1.3365000E-02   -6.2593382E-11
  1.3400000E-02   -3.4510395E-11
  1.3435000E-02    5.7090433E-11
  1.3470000E-02    5.8939818E-11
  1.3505000E-02   -4.1970292E-11
  1.3540000E-02   -8.0348901E-11
  1.3575000E-02    1.7389467E-11
  1.3610000E-02    9.4868113E-11
  1.3645000E-02    1.4992447E-11
  1.3680000E-02   -9.8891957E-11
  1.3715000E-02   -5.1974185E-11
  1.3750000E-02    8.9706124E-11
  1.3785000E-02    8.9019889E-11
  1.3820000E-02   -6.6088315E-11
  1.3855000E-02   -1.2072221E-10
  1.3890000E-02    2.8778577E-11
  1.3925000E-02    1.4149114E-10
  1.3960000E-02    1.9282253E-11
  1.3995000E-02   -1.4639592E-10
  1.4030000E-02   -7.3026592E-11
  1.4065000E-02    1.3204769E-10
  1.4100000E-02    1.2569006E-10
  1.4135000E-02   -9.7383941E-11
  1.4170000E-02   -1.6958733E-10
  1.4205000E-02    4.4207055E-11
  1.4240000E-02    1.9716292E-10
  1.4275000E-02    2.2654306E-11
  1.4310000E-02   -2.0218614E-10
  1.4345000E-02   -9.5647275E-11
  1.4380000E-02    1.8091423E-10
  1.4415000E-02    1.6528390E-10
  1.4450000E-02   -1.3302620E-10
  1.4485000E-02   -2.2136433E-10
  1.4520000E-02    6.2130481E-11
  1.4555000E-02    2.5449415E-10
  1.4590000E-02    2.4309898E-11
  1.4625000E-02   -2.5767663E-10
  1.4660000E-02   -1.1571316E-10
  1.4695000E-02    2.2770635E-10
  1.4730000E-02    1.9973934E-10
  1.4765000E-02   -1.6608170E-10
  1.4800000E-02   -2.6411429E-10
  1.4835000E-02    7.9206489E-11
  1.4870000E-02    2.9864036E-10
  1.4905000E-02    2.2245813E-11
  1.4940000E-02   -2.9704647E-10
  1.4975000E-02   -1.2479000E-10
  1.5010000E-02    2.5830710E-10
  1.5045000E-02    2.1422955E-10
  1.5080000E-02   -1.8710963E-10
  1.5115000E-02   -2.7805747E-10
  1.5150000E-02    9.3279599E-11
  1.5185000E-02    3.0769540E-10
  1.5220000E-02    9.8177855E-12
  1.5255000E-02   -3.0008399E-10
  1.5290000E-02   -1.0764192E-10
  1.5325000E-02    2.5823985E-10
  1.5360000E-02    1.8715041E-10
  1.5395000E-02   -1.9059511E-10
  1.5430000E-02   -2.3921806E-10
  1.5465000E-02    1.0919981E-10
  1.5500000E-02    2.6025138E-10
  1.5535000E-02   -2.7132106E-11
  1.5570000E-02   -2.5258817E-10
  1.5605000E-02   -4.4321366E-11
  1.5640000E-02    2.2351812E-10
  1.5675001E-02    9.8029425E-11
  1.5710000E-02   -1.8310807E-10
  1.5745001E-02   -1.3229544E-10
  1.5780000E-02    1.4135647E-10
  1.5814999E-02    1.5067005E-10
  1.5850000E-02   -1.0543095E-10
  1.5884999E-02   -1.6031193E-10
  1.5920000E-02    7.7751056E-11
  1.5954999E-02    1.6930851E-10
  1.5990000E-02   -5.5482185E-11
  1.6024999E-02   -1.8367469E-10
  1.6060000E-02    3.1645755E-11
  1.6094999E-02    2.0487054E-10
  1.6130000E-02    2.3696056E-12
  1.6164999E-02   -2.2860515E-10
  1.6200000E-02   -5.3525778E-11
  1.6235000E-02    2.4540237E-10
  1.6270000E-02    1.2400267E-10
  1.6305000E-02   -2.4292673E-10
  1.6340001E-02   -2.0918550E-10
  1.6375000E-02    2.0952635E-10
  1.6410001E-02    2.9746991E-10
  1.6445000E-02   -1.3805218E-10
  1.6480001E-02   -3.7207898E-10
  1.6515000E-02    2.8902178E-11
  1.6550001E-02    4.1453443E-10
  1.6585000E-02    1.0857040E-10
  1.6620001E-02   -4.0898829E-10
  1.6655000E-02   -2.5675359E-10
  1.6690001E-02    3.4638778E-10
  1.6725000E-02    3.9254755E-10
  1.6759999E-02   -2.2743891E-10
  1.6795000E-02   -4.9165566E-10
  1.6829999E-02    6.3598078E-11
  1.6865000E-02    5.3343968E-10
  1.6899999E-02    1.2417831E-10
  1.6935000E-02   -5.0526711E-10
  1.6969999E-02   -3.0865596E-10
  1.7005000E-02    4.0546752E-10
  1.7039999E-02    4.6084858E-10
  1.7075000E-02   -2.4438263E-10
  1.7109999E-02   -5.5503796E-10
  1.7145000E-02    4.3334773E-11
  1.7180000E-02    5.7345445E-10
  1.7215000E-02    1.6836309E-10
  1.7250000E-02   -5.0982663E-10
  1.7285001E-02   -3.5793118E-10
  1.7320000E-02    3.7115858E-10
  1.7355001E-02    4.9448612E-10
  1.7390000E-02   -1.7737528E-10
  1.7425001E-02   -5.5441296E-10
  1.7460000E-02   -4.1192688E-11
  1.7495001E-02    5.2593757E-10
  1.7530000E-02    2.4825014E-10
  1.7565001E-02   -4.1218370E-10
  1.7600000E-02   -4.0750478E-10
  1.7635001E-02    2.3200875E-10
  1.7670000E-02    4.8949983E-10
  1.7704999E-02   -1.7937969E-11
  1.7740000E-02   -4.7816184E-10
  1.7774999E-02   -1.8912266E-10
  1.7810000E-02    3.7542078E-10
  1.7844999E-02    3.4780959E-10
  1.7880000E-02   -2.0233945E-10
  1.7914999E-02   -4.2527903E-10
  1.7950000E-02   -3.9968779E-12
  1.7984999E-02    4.0522344E-10
  1.8020000E-02    1.9758888E-10
  1.8054999E-02   -2.9303324E-10
  1.8090000E-02   -3.3363903E-10
  1.8124999E-02    1.1643717E-10
  1.8160000E-02    3.7988795E-10
  1.8195000E-02    7.9623863E-11
  1.8230001E-02   -3.2631833E-10
  1.8265000E-02   -2.4385433E-10
  1.8300001E-02    1.8967362E-10
  1.8335000E-02    3.3280775E-10
  1.8370001E-02   -1.0270240E-11
  1.8405000E-02   -3.2409786E-10
  1.8440001E-02   -1.5878261E-10
  1.8475000E-02    2.2418797E-10
  1.8510001E-02    2.6728325E-10
  1.8545000E-02   -6.7592730E-11
  1.8580001E-02   -2.8381195E-10
  1.8615000E-02   -9.3009940E-11
  1.8650001E-02    2.0648461E-10
  1.8685000E-02    2.0300961E-10
  1.8719999E-02   -6.5084105E-11
  1.8755000E-02   -2.2427234E-10
  1.8789999E-02   -8.7605027E-11
  1.8825000E-02    1.4929101E-10
  1.8859999E-02    1.9348678E-10
  1.8895000E-02   -4.8652276E-12
  1.8929999E-02   -2.0905297E-10
  1.8965000E-02   -1.5522762E-10
  1.8999999E-02    1.2251843E-10
  1.9035000E-02    2.6922797E-10
  1.9069999E-02    4.0890003E-11
  1.9105000E-02   -2.9014113E-10
  1.9140000E-02   -2.2889533E-10
  1.9175000E-02    1.9960468E-10
  1.9210000E-02    3.7610295E-10
  1.9245001E-02   -1.8688192E-11
  1.9280000E-02   -4.2964787E-10
  1.9315001E-02   -2.0093906E-10
  1.9350000E-02    3.6715689E-10
  1.9385001E-02    3.9742645E-10
  1.9420000E-02   -1.9659051E-10
  1.9455001E-02   -5.0659543E-10
  1.9490000E-02   -2.9106564E-11
  1.9525001E-02    5.0474641E-10
  1.9560000E-02    2.5517957E-10
  1.9595001E-02   -3.8874115E-10
  1.9630000E-02   -4.1786061E-10
  1.9664999E-02    1.9522238E-10
  1.9700000E-02    4.7355520E-10
  1.9734999E-02    5.9348043E-12
  1.9770000E-02   -4.4032522E-10
  1.9804999E-02   -1.9506488E-10
  1.9840000E-02    2.8523264E-10
  1.9874999E-02    2.4045613E-10
  1.9910000E-02   -1.9012776E-10
  1.9944999E-02   -3.1889985E-10
  1.9980000E-02   -5.4607263E-11
  2.0014999E-02    8.2740426E-11
  2.0050000E-02   -1.0070828E-10
  2.0085000E-02   -2.6793814E-10
  2.0120000E-02   -2.5150457E-10
  2.0155000E-02   -2.7804473E-10
  2.0190001E-02   -4.2661347E-10
  2.0225000E-02   -4.8219173E-10
  2.0260001E-02   -4.5370060E-10
  2.0295000E-02   -6.5068995E-10
  2.0330001E-02   -1.0701203E-09
  2.0365000E-02   -1.2914319E-09
  2.0400001E-02   -1.2288469E-09
  2.0435000E-02   -1.4004120E-09
  2.0470001E-02   -2.0936097E-09
  2.0505000E-02   -2.8299514E-09
  2.0540001E-02   -3.1490148E-09
  2.0575000E-02   -3.4276011E-09
  2.0609999E-02   -4.2952353E-09
  2.0645000E-02   -5.6116680E-09
  2.0679999E-02   -6.7582775E-09
  2.0715000E-02   -7.7307662E-09
  2.0749999E-02   -9.1457943E-09
  2.0785000E-02   -1.1202186E-08
  2.0819999E-02   -1.3457532E-08
  2.0855000E-02   -1.5772413E-08
  2.0889999E-02   -1.8658360E-08
  2.0925000E-02   -2.2382869E-08
  2.0959999E-02   -2.6535135E-08
  2.0995000E-02   -3.0971005E-08
  2.1029999E-02   -3.6410434E-08
  2.1065000E-02   -4.3391392E-08
  2.1100000E-02   -5.1349812E-08
  2.1135001E-02   -5.9706096E-08
  2.1170000E-02   -6.9289577E-08
  2.1205001E-02   -8.1440085E-08
  2.1240000E-02   -9.6020543E-08
  2.1275001E-02   -1.1182285E-07
  2.1310000E-02   -1.2901647E-07
  2.1345001E-02   -1.4955499E-07
  2.1380000E-02   -1.7459924E-07
  2.1415001E-02   -2.0315771E-07
  2.1450000E-02   -2.3436891E-07
  2.1485001E-02   -2.6975573E-07
  2.1520000E-02   -3.1168196E-07
  2.1555001E-02   -3.6053405E-07
  2.1590000E-02   -4.1527761E-07
  2.1624999E-02   -4.7640694E-07
  2.1660000E-02   -5.4643408E-07
  2.1694999E-02   -6.2730777E-07
  2.1730000E-02   -7.1913382E-07
  2.1764999E-02   -8.2210568E-07
  2.1800000E-02   -9.3825776E-07
  2.1834999E-02   -1.0703587E-06
  2.1870000E-02   -1.2201315E-06
  2.1904999E-02   -1.3886984E-06
  2.1940000E-02   -1.5781536E-06
  2.1974999E-02   -1.7915967E-06
  2.2010000E-02   -2.0319485E-06
  2.2045000E-02   -2.3017683E-06
  2.2080000E-02   -2.6041766E-06
  2.2115000E-02   -2.9430632E-06
  2.2150001E-02   -3.3223293E-06
  2.2185000E-02   -3.7458110E-06
  2.2220001E-02   -4.2181878E-06
  2.2255000E-02   -4.7451408E-06
  2.2290001E-02   -5.3322897E-06
  2.2325000E-02   -5.9848662E-06
  2.2360001E-02   -6.7090900E-06
  2.2395000E-02   -7.5130638E-06
  2.2430001E-02   -8.4053963E-06
  2.2465000E-02   -9.3936824E-06
  2.2500001E-02   -1.0485680E-05
  2.2535000E-02   -1.1691607E-05
  2.2569999E-02   -1.3023700E-05
  2.2605000E-02   -1.4493501E-05
  2.2639999E-02   -1.6111371E-05
  2.2675000E-02   -1.7889357E-05
  2.2709999E-02   -1.9842904E-05
  2.2745000E-02   -2.1988604E-05
  2.2779999E-02   -2.4341665E-05
  2.2815000E-02   -2.6917311E-05
  2.2849999E-02   -2.9733859E-05
  2.2885000E-02   -3.2812677E-05
  2.2919999E-02   -3.6175315E-05
  2.2955000E-02   -3.9842605E-05
  2.2990000E-02   -4.3836801E-05
  2.3025000E-02   -4.8183269E-05
  2.3060000E-02   -5.2909418E-05
  2.3095001E-02   -5.8042962E-05
  2.3130000E-02   -6.3612024E-05
  2.3165001E-02   -6.9646572E-05
  2.3200000E-02   -7.6179131E-05
  2.3235001E-02   -8.3243969E-05
  2.3270000E-02   -9.0876383E-05
  2.3305001E-02   -9.9112869E-05
  2.3340000E-02   -1.0799184E-04
  2.3375001E-02   -1.1755375E-04
  2.3410000E-02   -1.2784083E-04
  2.3445001E-02   -1.3889694E-04
  2.3480000E-02   -1.5076729E-04
  2.3514999E-02   -1.6349865E-04
  2.3550000E-02   -1.7713914E-04
  2.3584999E-02   -1.9173838E-04
  2.3620000E-02   -2.0734768E-04
  2.3654999E-02   -2.2401984E-04
  2.3690000E-02   -2.4180827E-04
  2.3724999E-02   -2.6076703E-04
  2.3760000E-02   -2.8095159E-04
  2.3794999E-02   -3.0241936E-04
  2.3830000E-02   -3.2522835E-04
  2.3864999E-02   -3.4943613E-04
  2.3900000E-02   -3.7510079E-04
  2.3934999E-02   -4.0228158E-04
  2.3970000E-02   -4.3103841E-04
  2.4005000E-02   -4.6143003E-04
  2.4040001E-02   -4.9351418E-04
  2.4075000E-02   -5.2734779E-04
  2.4110001E-02   -5.6298793E-04
  2.4145000E-02   -6.0049031E-04
  2.4180001E-02   -6.3990778E-04
  2.4215000E-02   -6.8129081E-04
  2.4250001E-02   -7.2468823E-04
  2.4285000E-02   -7.7014713E-04
  2.4320001E-02   -8.1771065E-04
  2.4355000E-02   -8.6741807E-04
  2.4390001E-02   -9.1930508E-04
  2.4425000E-02   -9.7340386E-04
  2.4460001E-02   -1.0297417E-03
  2.4495000E-02   -1.0883403E-03
  2.4529999E-02   -1.1492147E-03
  2.4565000E-02   -1.2123741E-03
  2.4599999E-02   -1.2778223E-03
  2.4635000E-02   -1.3455549E-03
  2.4669999E-02   -1.4155594E-03
  2.4705000E-02   -1.4878144E-03
  2.4739999E-02   -1.5622906E-03
  2.4775000E-02   -1.6389508E-03
  2.4809999E-02   -1.7177463E-03
  2.4845000E-02   -1.7986180E-03
  2.4879999E-02   -1.8814980E-03
  2.4915000E-02   -1.9663072E-03
  2.4950000E-02   -2.0529539E-03
  2.4985000E-02   -2.1413350E-03
  2.5020000E-02   -2.2313350E-03
  2.5055001E-02   -2.3228282E-03
  2.5090000E-02   -2.4156740E-03
  2.5125001E-02   -2.5097167E-03
  2.5160000E-02   -2.6047889E-03
  2.5195001E-02   -2.7007109E-03
  2.5230000E-02   -2.7972884E-03
  2.5265001E-02   -2.8943126E-03
  2.5300000E-02   -2.9915615E-03
  2.5335001E-02   -3.0887993E-03
  2.5370000E-02   -3.1857775E-03
  2.5405001E-02   -3.2822320E-03
  2.5440000E-02   -3.3778874E-03
  2.5474999E-02   -3.4724551E-03
  2.5510000E-02   -3.5656353E-03
  2.5544999E-02   -3.6571140E-03
  2.5580000E-02   -3.7465643E-03
  2.5614999E-02   -3.8336499E-03
  2.5650000E-02   -3.9180270E-03
  2.5684999E-02   -3.9993413E-03
  2.5720000E-02   -4.0772269E-03
  2.5754999E-02   -4.1513154E-03
  2.5790000E-02   -4.2212270E-03
  2.5824999E-02   -4.2865784E-03
  2.5860000E-02   -4.3469835E-03
  2.5895000E-02   -4.4020554E-03
  2.5930000E-02   -4.4514020E-03
  2.5965000E-02   -4.4946321E-03
  2.6000001E-02   -4.5313542E-03
  2.6035000E-02   -4.5611816E-03
  2.6070001E-02   -4.5837373E-03
  2.6105000E-02   -4.5986502E-03
  2.6140001E-02   -4.6055517E-03
  2.6175000E-02   -4.6040872E-03
  2.6210001E-02   -4.5939130E-03
  2.6245000E-02   -4.5746993E-03
  2.6280001E-02   -4.5461357E-03
  2.6315000E-02   -4.5079300E-03
  2.6350001E-02   -4.4598095E-03
  2.6385000E-02   -4.4015227E-03
  2.6419999E-02   -4.3328395E-03
  2.6455000E-02   -4.2535574E-03
  2.6489999E-02   -4.1635009E-03
  2.6525000E-02   -4.0625292E-03
  2.6559999E-02   -3.9505307E-03
  2.6595000E-02   -3.8274245E-03
  2.6629999E-02   -3.6931660E-03
  2.6665000E-02   -3.5477499E-03
  2.6699999E-02   -3.3912079E-03
  2.6735000E-02   -3.2236080E-03
  2.6769999E-02   -3.0450593E-03
  2.6805000E-02   -2.8557153E-03
  2.6839999E-02   -2.6557732E-03
  2.6875000E-02   -2.4454705E-03
  2.6910000E-02   -2.2250889E-03
  2.6945001E-02   -1.9949572E-03
  2.6980000E-02   -1.7554481E-03