 -4.8000002E-03    1.0000000E-24
 -4.7650002E-03    1.0000002E-24
 -4.7300002E-03    1.0000001E-24
 -4.6950001E-03    1.0000000E-24
 -4.6600001E-03    1.0000003E-24
 -4.6250001E-03    1.0000002E-24
 -4.5900000E-03    9.9999992E-25
 -4.5550000E-03    1.0000002E-24
 -4.5200000E-03    1.0000000E-24
 -4.4849999E-03    9.9999992E-25
 -4.4499999E-03    1.0000002E-24
 -4.4149999E-03    1.0000002E-24
 -4.3799998E-03    9.9999963E-25
 -4.3449998E-03    9.9999972E-25
 -4.3100002E-03    1.0000006E-24
 -4.2750002E-03    1.0000002E-24
 -4.2400002E-03    9.9999992E-25
 -4.2050001E-03    1.0000005E-24
 -4.1700001E-03    1.0000006E-24
 -4.1350001E-03    9.9999953E-25
 -4.1000000E-03    9.9999943E-25
 -4.0650000E-03    1.0000004E-24
 -4.0300000E-03    1.0000002E-24
 -3.9949999E-03    9.9999953E-25
 -3.9599999E-03    1.0000003E-24
 -3.9249999E-03    1.0000007E-24
 -3.8900001E-03    9.9999963E-25
 -3.8550000E-03    9.9999963E-25
 -3.8200000E-03    1.0000005E-24
 -3.7849999E-03    1.0000002E-24
 -3.7499999E-03    9.9999972E-25
 -3.7150001E-03    1.0000005E-24
 -3.6800001E-03    1.0000007E-24
 -3.6450000E-03    9.9999963E-25
 -3.6100000E-03    9.9999953E-25
 -3.5750000E-03    1.0000000E-24
 -3.5399999E-03    9.9999992E-25
 -3.5049999E-03    9.9999992E-25
 -3.4700001E-03    1.0000006E-24
 -3.4350001E-03    1.0000005E-24
 -3.4000000E-03    1.0000001E-24
 -3.3650000E-03    9.9999992E-25
 -3.3300000E-03    1.0000000E-24
 -3.2949999E-03    9.9999982E-25
 -3.2599999E-03    9.9999982E-25
 -3.2250001E-03    1.0000002E-24
 -3.1900001E-03    1.0000001E-24
 -3.1550000E-03    1.0000001E-24
 -3.1200000E-03    1.0000004E-24
 -3.0850000E-03    1.0000004E-24
 -3.0499999E-03    9.9999972E-25
 -3.0149999E-03    9.9999992E-25
 -2.9800001E-03    1.0000007E-24
 -2.9450001E-03    1.0000000E-24
 -2.9100000E-03    9.9999972E-25
 -2.8750000E-03    1.0000003E-24
 -2.8400000E-03    1.0000002E-24
 -2.8049999E-03    9.9999982E-25
 -2.7699999E-03    1.0000002E-24
 -2.7350001E-03    1.0000007E-24
 -2.7000001E-03    1.0000003E-24
 -2.6650000E-03    9.9999943E-25
 -2.6300000E-03    9.9999963E-25
 -2.5950000E-03    1.0000002E-24
 -2.5599999E-03    1.0000003E-24
 -2.5249999E-03    1.0000001E-24
 -2.4900001E-03    1.0000002E-24
 -2.4550001E-03    1.0000004E-24
 -2.4200000E-03    1.0000005E-24
 -2.3850000E-03    1.0000002E-24
 -2.3500000E-03    9.9999992E-25
 -2.3149999E-03    9.9999943E-25
 -2.2799999E-03    9.9999874E-25
 -2.2450001E-03    9.9999953E-25
 -2.2100001E-03    1.0000008E-24
 -2.1750000E-03    1.0000005E-24
 -2.1400000E-03    9.9999972E-25
 -2.1050000E-03    1.0000005E-24
 -2.0699999E-03    1.0000008E-24
 -2.0349999E-03    1.0000000E-24
 -2.0000001E-03    9.9999972E-25
 -1.9650001E-03    1.0000003E-24
 -1.9300000E-03    1.0000006E-24
 -1.8950000E-03    1.0000005E-24
 -1.8600000E-03    9.9999982E-25
 -1.8250000E-03    9.9999982E-25
 -1.7900000E-03    1.0000006E-24
 -1.7550000E-03    1.0000001E-24
 -1.7199999E-03    9.9999933E-25
 -1.6850000E-03    1.0000006E-24
 -1.6500000E-03    1.0000013E-24
 -1.6150000E-03    9.9999903E-25
 -1.5800000E-03    9.9999785E-25
 -1.5450000E-03    1.0000001E-24
 -1.5100000E-03    1.0000010E-24
 -1.4750001E-03    9.9999972E-25
 -1.4400000E-03    1.0000000E-24
 -1.4050000E-03    1.0000009E-24
 -1.3700000E-03    1.0000003E-24
 -1.3350000E-03    9.9999982E-25
 -1.3000000E-03    9.9999992E-25
 -1.2650000E-03    1.0000001E-24
 -1.2300001E-03    9.9999992E-25
 -1.1950000E-03    1.0000000E-24
 -1.1600000E-03    9.9999982E-25
 -1.1250000E-03    9.9999923E-25
 -1.0900000E-03    1.0000002E-24
 -1.0550000E-03    1.0000013E-24
 -1.0200000E-03    9.9999992E-25
 -9.8500005E-04    9.9999913E-25
 -9.5000002E-04    1.0000005E-24
 -9.1499998E-04    1.0000002E-24
 -8.8000001E-04    9.9999893E-25
 -8.4499997E-04    9.9999953E-25
 -8.1000000E-04    1.0000005E-24
 -7.7500002E-04    1.0000002E-24
 -7.3999999E-04    1.0000003E-24
 -7.0500001E-04    1.0000004E-24
 -6.6999998E-04    1.0000000E-24
 -6.3500000E-04    1.0000006E-24
 -6.0000003E-04    1.0000004E-24
 -5.6499999E-04    9.9999923E-25
 -5.3000002E-04    1.0000005E-24
 -4.9499999E-04    1.0000015E-24
 -4.6000001E-04    9.9999992E-25
 -4.2500001E-04    9.9999943E-25
 -3.9000000E-04    1.0000011E-24
 -3.5500000E-04    1.0000006E-24
 -3.1999999E-04    9.9999854E-25
 -2.8499999E-04    9.9999884E-25
 -2.5000001E-04    1.0000008E-24
 -2.1499999E-04    1.0000001E-24
 -1.8000000E-04    9.9999884E-25
 -1.4500000E-04    9.9999992E-25
 -1.1000000E-04    1.0000006E-24
 -7.5000004E-05    9.9999972E-25
 -3.9999999E-05    9.9999992E-25
 -4.9999999E-06    1.0000013E-24
  2.9999999E-05    1.0000009E-24
  6.5000000E-05    9.9999982E-25
  9.9999997E-05    9.9999982E-25
  1.3499999E-04    9.9999963E-25
  1.7000000E-04    9.9999933E-25
  2.0500000E-04    1.0000001E-24
  2.3999999E-04    1.0000002E-24
  2.7500000E-04    1.0000003E-24
  3.1000000E-04    1.0000006E-24
  3.4500001E-04    9.9999992E-25
  3.8000001E-04    9.9999903E-25
  4.1499999E-04    9.9999992E-25
  4.4999999E-04    1.0000003E-24
  4.8500000E-04    9.9999972E-25
  5.2000000E-04    9.9999982E-25
  5.5499998E-04    1.0000009E-24
  5.9000001E-04    1.0000010E-24
  6.2499999E-04    1.0000009E-24
  6.6000002E-04    1.0000000E-24
  6.9500000E-04    9.9999903E-25
  7.3000003E-04    9.9999953E-25
  7.6500000E-04    1.0000004E-24
  7.9999998E-04    1.0000001E-24
  8.3500001E-04    1.0000000E-24
  8.6999999E-04    1.0000008E-24
  9.0500002E-04    1.0000011E-24
  9.4000000E-04    1.0000002E-24
  9.7499997E-04    9.9999963E-25
  1.0100000E-03    1.0000005E-24
  1.0450000E-03    1.0000009E-24
  1.0800000E-03    9.9999992E-25
  1.1150000E-03    9.9999864E-25
  1.1500000E-03    9.9999933E-25
  1.1849999E-03    1.0000004E-24
  1.2200000E-03    9.9999982E-25
  1.2550000E-03    9.9999972E-25
  1.2900000E-03    1.0000004E-24
  1.3250000E-03    1.0000009E-24
  1.3600000E-03    1.0000002E-24
  1.3950000E-03    9.9999913E-25
  1.4299999E-03    9.9999963E-25
  1.4650000E-03    1.0000010E-24
  1.5000000E-03    1.0000006E-24
  1.5350000E-03    9.9999923E-25
  1.5700000E-03    1.0000000E-24
  1.6050000E-03    1.0000009E-24
  1.6400000E-03    9.9999992E-25
  1.6749999E-03    9.9999884E-25
  1.7100000E-03    1.0000002E-24
  1.7450000E-03    1.0000008E-24
  1.7800000E-03    9.9999903E-25
  1.8150000E-03    9.9999903E-25
  1.8500000E-03    1.0000016E-24
  1.8850000E-03    1.0000017E-24
  1.9200000E-03    9.9999953E-25
  1.9550000E-03    9.9999992E-25
  1.9900000E-03    1.0000012E-24
  2.0250001E-03    9.9999943E-25
  2.0600001E-03    9.9999884E-25
  2.0949999E-03    1.0000011E-24
  2.1299999E-03    1.0000004E-24
  2.1650000E-03    9.9999913E-25
  2.2000000E-03    1.0000019E-24
  2.2350000E-03    1.0000023E-24
  2.2700001E-03    9.9999824E-25
  2.3050001E-03    9.9999844E-25
  2.3399999E-03    1.0000014E-24
  2.3749999E-03    9.9999933E-25
  2.4100000E-03    9.9999824E-25
  2.4450000E-03    1.0000015E-24
  2.4800000E-03    1.0000013E-24
  2.5150001E-03    9.9999854E-25
  2.5500001E-03    9.9999943E-25
  2.5849999E-03    1.0000009E-24
  2.6199999E-03    9.9999953E-25
  2.6550000E-03    9.9999933E-25
  2.6900000E-03    1.0000003E-24
  2.7250000E-03    1.0000001E-24
  2.7600001E-03    9.9999982E-25
  2.7950001E-03    1.0000008E-24
  2.8299999E-03    1.0000010E-24
  2.8649999E-03    1.0000007E-24
  2.9000000E-03    1.0000009E-24
  2.9350000E-03    1.0000012E-24
  2.9700000E-03    9.9999943E-25
  3.0050001E-03    9.9999824E-25
  3.0400001E-03    1.0000004E-24
  3.0749999E-03    1.0000011E-24
  3.1099999E-03    9.9999903E-25
  3.1450000E-03    9.9999913E-25
  3.1800000E-03    1.0000013E-24
  3.2150000E-03    1.0000004E-24
  3.2500001E-03    9.9999854E-25
  3.2850001E-03    9.9999992E-25
  3.3199999E-03    1.0000010E-24
  3.3549999E-03    9.9999943E-25
  3.3900000E-03    9.9999963E-25
  3.4250000E-03    1.0000009E-24
  3.4600000E-03    1.0000005E-24
  3.4950001E-03    9.9999943E-25
  3.5300001E-03    1.0000001E-24
  3.5649999E-03    1.0000005E-24
  3.5999999E-03    9.9999963E-25
  3.6350000E-03    9.9999982E-25
  3.6700000E-03    1.0000000E-24
  3.7050000E-03    9.9999933E-25
  3.7400001E-03    9.9999943E-25
  3.7750001E-03    1.0000004E-24
  3.8099999E-03    9.9999992E-25
  3.8449999E-03    1.0000000E-24
  3.8800000E-03    1.0000020E-24
  3.9149998E-03    1.0000013E-24
  3.9499998E-03    9.9999874E-25
  3.9849998E-03    1.0000007E-24
  4.0199999E-03    1.0000019E-24
  4.0549999E-03    9.9999765E-25
  4.0899999E-03    9.9999686E-25
  4.1250000E-03    1.0000007E-24
  4.1600000E-03    1.0000013E-24
  4.1950000E-03    9.9999933E-25
  4.2300001E-03    1.0000005E-24
  4.2650001E-03    1.0000018E-24
  4.3000001E-03    1.0000008E-24
  4.3350002E-03    9.9999893E-25
  4.3700002E-03    9.9999864E-25
  4.4049998E-03    1.0000012E-24
  4.4399998E-03    1.0000021E-24
  4.4749998E-03    9.9999972E-25
  4.5099999E-03    9.9999972E-25
  4.5449999E-03    1.0000014E-24
  4.5799999E-03    9.9999893E-25
  4.6150000E-03    9.9999657E-25
  4.6500000E-03    9.9999953E-25
  4.6850001E-03    1.0000014E-24
  4.7200001E-03    1.0000006E-24
  4.7550001E-03    1.0000010E-24
  4.7900002E-03    1.0000009E-24
  4.8250002E-03    1.0000000E-24
  4.8600002E-03    1.0000000E-24
  4.8949998E-03    9.9999943E-25
  4.9299998E-03    9.9999982E-25
  4.9649999E-03    1.0000017E-24
  4.9999999E-03    1.0000009E-24
  5.0349999E-03    9.9999844E-25
  5.0700000E-03    9.9999953E-25
  5.1050000E-03    1.0000013E-24
  5.1400000E-03    9.9999913E-25
  5.1750001E-03    9.9999824E-25
  5.2100001E-03    9.9999982E-25
  5.2450001E-03    1.0000006E-24
  5.2800002E-03    1.0000004E-24
  5.3150002E-03    9.9999992E-25
  5.3500002E-03    9.9999963E-25
  5.3849998E-03    1.0000003E-24
  5.4199998E-03    1.0000000E-24
  5.4549999E-03    9.9999933E-25
  5.4899999E-03    1.0000000E-24
  5.5249999E-03    1.0000007E-24
  5.5600000E-03    1.0000009E-24
  5.5950000E-03    1.0000013E-24
  5.6300000E-03    1.0000007E-24
  5.6650001E-03    9.9999992E-25
  5.7000001E-03    1.0000002E-24
  5.7350001E-03    9.9999923E-25
  5.7700002E-03    9.9999844E-25
  5.8050002E-03    1.0000009E-24
  5.8400002E-03    1.0000024E-24
  5.8749998E-03    9.9999903E-25
  5.9099998E-03    9.9999755E-25
  5.9449999E-03    1.0000002E-24
  5.9799999E-03    1.0000004E-24
  6.0149999E-03    9.9999903E-25
  6.0500000E-03    1.0000007E-24
  6.0850000E-03    1.0000021E-24
  6.1200000E-03    9.9999943E-25
  6.1550001E-03    9.9999864E-25
  6.1900001E-03    1.0000018E-24
  6.2250001E-03    1.0000013E-24
  6.2600002E-03    9.9999746E-25
  6.2950002E-03    9.9999923E-25
  6.3299998E-03    1.0000021E-24
  6.3649998E-03    1.0000000E-24
  6.3999998E-03    9.9999982E-25
  6.4349999E-03    1.0000027E-24
  6.4699999E-03    1.0000014E-24
  6.5049999E-03    9.9999854E-25
  6.5400000E-03    9.9999982E-25
  6.5750000E-03    1.0000005E-24
  6.6100000E-03    9.9999864E-25
  6.6450001E-03    9.9999824E-25
  6.6800001E-03    1.0000005E-24
  6.7150001E-03    1.0000031E-24
  6.7500002E-03    1.0000021E-24
  6.7850002E-03    9.9999657E-25
  6.8199998E-03    9.9999617E-25
  6.8549998E-03    1.0000050E-24
  6.8899998E-03    1.0000062E-24
  6.9249999E-03    9.9999213E-25
  6.9599999E-03    9.9998690E-25
  6.9949999E-03    1.0000089E-24
  7.0300000E-03    1.0000254E-24
  7.0650000E-03    9.9999322E-25
  7.1000000E-03    9.9995614E-25
  7.1350001E-03    1.0000025E-24
  7.1700001E-03    1.0000770E-24
  7.2050001E-03    1.0000150E-24
  7.2400002E-03    9.9987420E-25
  7.2750002E-03    9.9994204E-25
  7.3099998E-03    1.0001914E-24
  7.3449998E-03    1.0001465E-24
  7.3799998E-03    9.9972767E-25
  7.4149999E-03    9.9968724E-25
  7.4499999E-03    1.0003630E-24
  7.4850000E-03    1.0006148E-24
  7.5200000E-03    9.9957413E-25
  7.5550000E-03    9.9887362E-25
  7.5900001E-03    1.0003824E-24
  7.6250001E-03    1.0019417E-24
  7.6600001E-03    9.9992084E-25
  7.6950002E-03    9.9682929E-25
  7.7300002E-03    9.9923266E-25
  7.7650002E-03    1.0049016E-24
  7.7999998E-03    1.0026339E-24
  7.8349998E-03    9.9286822E-25
  7.8699999E-03    9.9372029E-25
  7.9049999E-03    1.0096178E-24
  7.9399999E-03    1.0128299E-24
  7.9750000E-03    9.8837675E-25
  8.0100000E-03    9.7616863E-25
  8.0450000E-03    1.0115020E-24
  8.0800001E-03    1.0412001E-24
  8.1150001E-03    9.9394186E-25
  8.1500001E-03    9.3308588E-25
  8.1850002E-03    9.8967837E-25
  8.2200002E-03    1.1022788E-24
  8.2550002E-03    1.0468073E-24
  8.2900003E-03    8.5362846E-25
  8.3250003E-03    8.8266514E-25
  8.3600003E-03    1.1932496E-24
  8.3950004E-03    1.2415175E-24
  8.4300004E-03    7.7263547E-25
  8.4650004E-03    5.5549840E-25
  8.5000005E-03    1.2165855E-24
  8.5349996E-03    1.7543499E-24
  8.5699996E-03    8.9755953E-25
  8.6049996E-03   -1.9470869E-25
  8.6399997E-03    7.8783583E-25
  8.6749997E-03    2.7694228E-24
  8.7099997E-03    1.8762179E-24
  8.7449998E-03   -1.4347531E-24
  8.7799998E-03   -1.1010530E-24
  8.8149998E-03    4.0536982E-24
  8.8499999E-03    5.1599518E-24
  8.8849999E-03   -2.3278354E-24
  8.9199999E-03   -6.3638924E-24
  8.9550000E-03    3.7034724E-24
  8.9900000E-03    1.2991993E-23
  9.0250000E-03    7.4338791E-25
  9.0600001E-03   -1.7147577E-23
  9.0950001E-03   -4.4272744E-24
  9.1300001E-03    2.6501697E-23
  9.1650002E-03    1.7340327E-23
  9.2000002E-03   -3.1882905E-23
  9.2350002E-03   -3.4033892E-23
  9.2700003E-03    3.8678260E-23
  9.3050003E-03    6.5377712E-23
  9.3400003E-03   -3.4041882E-23
  9.3750004E-03   -1.0592163E-22
  9.4100004E-03    1.7962924E-23
  9.4450004E-03    1.6462420E-22
  9.4799995E-03    2.9635592E-23
  9.5149996E-03   -2.3067684E-22
  9.5499996E-03   -1.1741747E-22
  9.5849996E-03    3.0214900E-22
  9.6199997E-03    2.7416531E-22
  9.6549997E-03   -3.4930753E-22
  9.6899997E-03   -5.1440703E-22
  9.7249998E-03    3.4070145E-22
  9.7599998E-03    8.6480572E-22
  9.7949998E-03   -2.0475236E-22
  9.8299999E-03   -1.3217852E-21
  9.8649999E-03   -1.4369962E-22
  9.8999999E-03    1.8665803E-21
  9.9350000E-03    8.3683405E-22
  9.9700000E-03   -2.4086049E-21
  1.0005000E-02   -2.0149393E-21
  1.0040000E-02    2.7848150E-21
  1.0075000E-02    3.8363348E-21
  1.0110000E-02   -2.6897026E-21
  1.0145000E-02   -6.4000466E-21
  1.0180000E-02    1.6702783E-21
  1.0215000E-02    9.6997913E-21
  1.0250000E-02    9.2895291E-22
  1.0285000E-02   -1.3473792E-20
  1.0320000E-02   -5.9223091E-21
  1.0355000E-02    1.7074651E-20
  1.0390000E-02    1.4237069E-20
  1.0425000E-02   -1.9240163E-20
  1.0460000E-02   -2.6699456E-20
  1.0495000E-02    1.7917554E-20
  1.0530000E-02    4.3733840E-20
  1.0565000E-02   -1.0069359E-20
  1.0600000E-02   -6.4806331E-20
  1.0635000E-02   -8.3228037E-21
  1.0670000E-02    8.7720313E-20
  1.0705000E-02    4.2048625E-20
  1.0740000E-02   -1.0765794E-19
  1.0775000E-02   -9.5953526E-20
  1.0810000E-02    1.1619416E-19
  1.0845000E-02    1.7363788E-19
  1.0880000E-02   -1.0037757E-19
  1.0915000E-02   -2.7526521E-19
  1.0950000E-02    4.2368239E-20
  1.0985000E-02    3.9448179E-19
  1.1020000E-02    7.9943756E-20
  1.1055000E-02   -5.1438831E-19
  1.1090000E-02   -2.9047572E-19
  1.1125000E-02    6.0307764E-19
  1.1160000E-02    6.0997446E-19
  1.1195000E-02   -6.0942330E-19
  1.1230000E-02   -1.0475815E-18
  1.1265000E-02    4.6069069E-19
  1.1300000E-02    1.5885602E-18
  1.1335000E-02   -6.4009704E-20
  1.1370000E-02   -2.1783280E-18
  1.1405000E-02   -6.8544073E-19
  1.1440000E-02    2.7041789E-18
  1.1475000E-02    1.8864224E-18
  1.1510000E-02   -2.9777615E-18
  1.1545000E-02   -3.6007060E-18
  1.1580000E-02    2.7237240E-18
  1.1615000E-02    5.8074936E-18
  1.1650000E-02   -1.5821955E-18
  1.1685000E-02   -8.3436344E-18
  1.1720000E-02   -8.6446836E-19
  1.1755000E-02    1.0834908E-17
  1.1790000E-02    5.0297677E-18
  1.1825000E-02   -1.2629198E-17
  1.1860000E-02   -1.1215014E-17
  1.1895000E-02    1.2750281E-17
  1.1930000E-02    1.9449010E-17
  1.1965000E-02   -9.9003469E-18
  1.2000000E-02   -2.9278197E-17
  1.2035000E-02    2.5446392E-18
  1.2070000E-02    3.9525787E-17
  1.2105000E-02    1.0883144E-17
  1.2140000E-02   -4.8056226E-17
  1.2175000E-02   -3.1620448E-17
  1.2210000E-02    5.1610746E-17
  1.2245000E-02    6.0042427E-17
  1.2280000E-02   -4.5802466E-17
  1.2315000E-02   -9.4967203E-17
  1.2350000E-02    2.5384166E-17
  1.2385000E-02    1.3286490E-16
  1.2420000E-02    1.5096949E-17
  1.2455000E-02   -1.6708839E-16
  1.2490000E-02   -8.0148024E-17
  1.2525000E-02    1.8734454E-16
  1.2560000E-02    1.7164850E-16
  1.2595000E-02   -1.7967011E-16
  1.2630000E-02   -2.8667436E-16
  1.2665000E-02    1.2726302E-16
  1.2700000E-02    4.1505319E-16
  1.2735000E-02   -1.2516689E-17
  1.2770000E-02   -5.3704689E-16
  1.2805000E-02   -1.7949291E-16
  1.2840000E-02    6.2177136E-16
  1.2875000E-02    4.5592729E-16
  1.2910000E-02   -6.2721953E-16
  1.2945000E-02   -8.0976710E-16
  1.2980000E-02    5.0280744E-16
  1.3015000E-02    1.2127195E-15
  1.3050000E-02   -1.9539745E-16
  1.3085000E-02   -1.6086318E-15
  1.3120000E-02   -3.4044957E-16
  1.3155000E-02    1.9092925E-15
  1.3190000E-02    1.1280230E-15
  1.3225000E-02   -1.9948854E-15
  1.3260000E-02   -2.1504898E-15
  1.3295000E-02    1.7216657E-15
  1.3330000E-02    3.3314437E-15
  1.3365000E-02   -9.3931475E-16
  1.3400000E-02   -4.5175659E-15
  1.3435000E-02   -4.8060152E-16
  1.3470000E-02    5.4684235E-15
  1.3505000E-02    2.6052417E-15
  1.3540000E-02   -5.8592848E-15
  1.3575000E-02   -5.3927483E-15
  1.3610000E-02    5.3038480E-15
  1.3645000E-02    8.6422949E-15
  1.3680000E-02   -3.4019295E-15
  1.3715000E-02   -1.1951339E-14
  1.3750000E-02   -1.8473429E-16
  1.3785000E-02    1.4693357E-14
  1.3820000E-02    5.6302907E-15
  1.3855000E-02   -1.6031169E-14
  1.3890000E-02   -1.2824989E-14
  1.3925000E-02    1.4980625E-14
  1.3960000E-02    2.1253756E-14
  1.3995000E-02   -1.0537652E-14
  1.4030000E-02   -2.9899257E-14
  1.4065000E-02    1.8706125E-15
  1.4100000E-02    3.7199553E-14
  1.4135000E-02    1.1427790E-14
  1.4170000E-02   -4.1098093E-14
  1.4205000E-02   -2.9055565E-14
  1.4240000E-02    3.9217676E-14
  1.4275000E-02    4.9725086E-14
  1.4310000E-02   -2.9181603E-14
  1.4345000E-02   -7.0958755E-14
  1.4380000E-02    9.0818491E-15
  1.4415000E-02    8.9028997E-14
  1.4450000E-02    2.1931447E-14
  1.4485000E-02   -9.9122025E-14
  1.4520000E-02   -6.3009866E-14
  1.4555000E-02    9.5791810E-14
  1.4590000E-02    1.1102002E-13
  1.4625000E-02   -7.3736068E-14
  1.4660000E-02   -1.6015189E-13
  1.4695000E-02    2.8883956E-14
  1.4730000E-02    2.0189071E-13
  1.4765000E-02    4.0298738E-14
  1.4800000E-02   -2.2550558E-13
  1.4835000E-02   -1.3145480E-13
  1.4870000E-02    2.1917487E-13
  1.4905000E-02    2.3717928E-13
  1.4940000E-02   -1.7178484E-13
  1.4975000E-02   -3.4437549E-13
  1.5010000E-02    7.5314646E-14
  1.5045000E-02    4.3444789E-13
  1.5080000E-02    7.2421148E-14
  1.5115000E-02   -4.8465393E-13
  1.5150000E-02   -2.6510009E-13
  1.5185000E-02    4.7074974E-13
  1.5220000E-02    4.8582080E-13
  1.5255000E-02   -3.7093554E-13
  1.5290000E-02   -7.0625054E-13
  1.5325000E-02    1.7084454E-13
  1.5360000E-02    8.8768332E-13
  1.5395000E-02    1.3109854E-13
  1.5430000E-02   -9.8441264E-13
  1.5465000E-02   -5.1878093E-13
  1.5500000E-02    9.4965550E-13
  1.5535000E-02    9.5511153E-13
  1.5570000E-02   -7.4378313E-13
  1.5605000E-02   -1.3815659E-12
  1.5640000E-02    3.4399176E-13
  1.5675001E-02    1.7215665E-12
  1.5710000E-02    2.4581761E-13
  1.5745001E-02   -1.8884510E-12
  1.5780000E-02   -9.8699933E-13
  1.5814999E-02    1.7978770E-12
  1.5850000E-02    1.8018847E-12
  1.5884999E-02   -1.3838732E-12
  1.5920000E-02   -2.5755112E-12
  1.5954999E-02    6.1648093E-13
  1.5990000E-02    3.1647185E-12
  1.6024999E-02    4.8178166E-13
  1.6060000E-02   -3.4154327E-12
  1.6094999E-02   -1.8242378E-12
  1.6130000E-02    3.1870077E-12
  1.6164999E-02    3.2567139E-12
  1.6200000E-02   -2.3813380E-12
  1.6235000E-02   -4.5658460E-12
  1.6270000E-02    9.7236498E-13
  1.6305000E-02    5.5004868E-12
  1.6340001E-02    9.6928856E-13
  1.6375000E-02   -5.8061355E-12
  1.6410001E-02   -3.2628128E-12
  1.6445000E-02    5.2692815E-12
  1.6480001E-02    5.6204104E-12
  1.6515000E-02   -3.7659017E-12
  1.6550001E-02   -7.6708440E-12
  1.6585000E-02    1.3059776E-12
  1.6620001E-02    9.0044005E-12
  1.6655000E-02    1.9354013E-12
  1.6690001E-02   -9.2358230E-12
  1.6725000E-02   -5.6093910E-12
  1.6759999E-02    8.0781397E-12
  1.6795000E-02    9.2149344E-12
  1.6829999E-02   -5.4156150E-12
  1.6865000E-02   -1.2152582E-11
  1.6899999E-02    1.3618531E-12
  1.6935000E-02    1.3808698E-11
  1.6969999E-02    3.7111074E-12
  1.7005000E-02   -1.3660324E-11
  1.7039999E-02   -9.1849427E-12
  1.7075000E-02    1.1385280E-11
  1.7109999E-02    1.4254557E-11
  1.7145000E-02   -6.9580752E-12
  1.7180000E-02   -1.8033450E-11
  1.7215000E-02    7.1002389E-13
  1.7250000E-02    1.9694416E-11
  1.7285001E-02    6.6645361E-12
  1.7320000E-02   -1.8624886E-11
  1.7355001E-02   -1.4167229E-11
  1.7390000E-02    1.4570971E-11
  1.7425001E-02    2.0620979E-11
  1.7460000E-02   -7.7390776E-12
  1.7495001E-02   -2.4847834E-11
  1.7530000E-02   -1.1692030E-12
  1.7565001E-02    2.5875828E-11
  1.7600000E-02    1.1008662E-11
  1.7635001E-02   -2.3138410E-11
  1.7670000E-02   -2.0330401E-11
  1.7704999E-02    1.6628499E-11
  1.7740000E-02    2.7597808E-11
  1.7774999E-02   -6.9685369E-12
  1.7810000E-02   -3.1445627E-11
  1.7844999E-02   -4.6250369E-12
  1.7880000E-02    3.0939629E-11
  1.7914999E-02    1.6492327E-11
  1.7950000E-02   -2.5785386E-11
  1.7984999E-02   -2.6777943E-11
  1.8020000E-02    1.6441520E-11
  1.8054999E-02    3.3741256E-11
  1.8090000E-02   -4.1028613E-12
  1.8124999E-02   -3.6072603E-11
  1.8160000E-02   -9.4534979E-12
  1.8195000E-02    3.3156471E-11
  1.8230001E-02    2.2143563E-11
  1.8265000E-02   -2.5223735E-11
  1.8300001E-02   -3.1926718E-11
  1.8335000E-02    1.3356884E-11
  1.8370001E-02    3.7169944E-11
  1.8405000E-02    6.6429165E-13
  1.8440001E-02   -3.6953027E-11
  1.8475000E-02   -1.4653726E-11
  1.8510001E-02    3.1253687E-11
  1.8545000E-02    2.6397079E-11
  1.8580001E-02   -2.0969013E-11
  1.8615000E-02   -3.4043865E-11
  1.8650001E-02    7.7656935E-12
  1.8685000E-02    3.6436965E-11
  1.8719999E-02    6.2151972E-12
  1.8755000E-02   -3.3313626E-11
  1.8789999E-02   -1.8741638E-11
  1.8825000E-02    2.5337191E-11
  1.8859999E-02    2.7885689E-11
  1.8895000E-02   -1.3955294E-11
  1.8929999E-02   -3.2350744E-11
  1.8965000E-02    1.1180869E-12
  1.8999999E-02    3.1670083E-11
  1.9035000E-02    1.1084742E-11
  1.9069999E-02   -2.6240786E-11
  1.9105000E-02   -2.0789065E-11
  1.9140000E-02    1.7199830E-11
  1.9175000E-02    2.6655780E-11
  1.9210000E-02   -6.1746498E-12
  1.9245001E-02   -2.8046150E-11
  1.9280000E-02   -5.0259575E-12
  1.9315001E-02    2.5056795E-11
  1.9350000E-02    1.4715704E-11
  1.9385001E-02   -1.8426035E-11
  1.9420000E-02   -2.1572700E-11
  1.9455001E-02    9.3490866E-12
  1.9490000E-02    2.4785297E-11
  1.9525001E-02    7.4633458E-13
  1.9560000E-02   -2.4094688E-11
  1.9595001E-02   -1.0413663E-11
  1.9630000E-02    1.9753645E-11
  1.9664999E-02    1.8356434E-11
  1.9700000E-02   -1.2436778E-11
  1.9734999E-02   -2.3543391E-11
  1.9770000E-02    3.1336279E-12
  1.9804999E-02    2.5278970E-11
  1.9840000E-02    6.9558153E-12
  1.9874999E-02   -2.3245796E-11
  1.9910000E-02   -1.6517475E-11
  1.9944999E-02    1.7537366E-11
  1.9980000E-02    2.4221999E-11
  2.0014999E-02   -8.6894875E-12
  2.0050000E-02   -2.8849638E-11
  2.0085000E-02   -2.3088185E-12
  2.0120000E-02    2.9449235E-11
  2.0155000E-02    1.4055553E-11
  2.0190001E-02   -2.5516199E-11
  2.0225000E-02   -2.4852559E-11
  2.0260001E-02    1.7156183E-11
  2.0295000E-02    3.2907094E-11
  2.0330001E-02   -5.1963273E-12
  2.0365000E-02   -3.6620287E-11
  2.0400001E-02   -8.8168396E-12
  2.0435000E-02    3.4918617E-11
  2.0470001E-02    2.2777835E-11
  2.0505000E-02   -2.7549180E-11
  2.0540001E-02   -3.4343684E-11
  2.0575000E-02    1.5244020E-11
  2.0609999E-02    4.1351894E-11
  2.0645000E-02    2.9119564E-13
  2.0679999E-02   -4.2267995E-11
  2.0715000E-02   -1.6594084E-11
  2.0749999E-02    3.6571836E-11
  2.0785000E-02    3.0866962E-11
  2.0819999E-02   -2.4971135E-11
  2.0855000E-02   -4.0536571E-11
  2.0889999E-02    9.3436821E-12
  2.0925000E-02    4.3803138E-11
  2.0959999E-02    7.5840376E-12
  2.0995000E-02   -4.0049273E-11
  2.1029999E-02   -2.2747174E-11
  2.1065000E-02    3.0040501E-11
  2.1100000E-02    3.3376031E-11
  2.1135001E-02   -1.5839224E-11
  2.1170000E-02   -3.7635697E-11
  2.1205001E-02    3.7919345E-13
  2.1240000E-02    3.5063140E-11
  2.1275001E-02    1.3190683E-11
  2.1310000E-02   -2.6670097E-11
  2.1345001E-02   -2.2188699E-11
  2.1380000E-02    1.4749231E-11
  2.1415001E-02    2.5007529E-11
  2.1450000E-02   -2.4206440E-12
  2.1485001E-02   -2.1584371E-11
  2.1520000E-02   -7.1219129E-12
  2.1555001E-02    1.3507131E-11
  2.1590000E-02    1.1491821E-11
  2.1624999E-02   -3.6030790E-12
  2.1660000E-02   -9.7410465E-12
  2.1694999E-02   -4.7764119E-12
  2.1730000E-02    2.6154179E-12
  2.1764999E-02    8.5246029E-12
  2.1800000E-02    7.4462294E-12
  2.1834999E-02   -5.6505248E-12
  2.1870000E-02   -1.6712180E-11
  2.1904999E-02   -3.8598196E-12
  2.1940000E-02    2.1196798E-11
  2.1974999E-02    1.7766901E-11
  2.2010000E-02   -1.7942365E-11
  2.2045000E-02   -3.2106158E-11
  2.2080000E-02    5.9042545E-12
  2.2115000E-02    4.2058163E-11
  2.2150001E-02    1.3534354E-11
  2.2185000E-02   -4.3003292E-11
  2.2220001E-02   -3.6292729E-11
  2.2255000E-02    3.2062592E-11
  2.2290001E-02    5.6212833E-11
  2.2325000E-02   -9.5874766E-12
  2.2360001E-02   -6.6873396E-11
  2.2395000E-02   -2.0567329E-11
  2.2430001E-02    6.3512862E-11
  2.2465000E-02    5.1896057E-11
  2.2500001E-02   -4.4267416E-11
  2.2535000E-02   -7.6355713E-11
  2.2569999E-02    1.1232461E-11
  2.2605000E-02    8.6125933E-11
  2.2639999E-02    2.8950613E-11
  2.2675000E-02   -7.6439549E-11
  2.2709999E-02   -6.6534472E-11
  2.2745000E-02    4.7701506E-11
  2.2779999E-02    9.1765616E-11
  2.2815000E-02   -5.2705245E-12
  2.2849999E-02   -9.7286526E-11
  2.2885000E-02   -4.1753340E-11
  2.2919999E-02    7.9667245E-11
  2.2955000E-02    8.1734605E-11
  2.2990000E-02   -4.1394665E-11
  2.3025000E-02   -1.0346678E-10
  2.3060000E-02   -8.4795539E-12
  2.3095001E-02    1.0057671E-10
  2.3130000E-02    5.7337482E-11
  2.3165001E-02   -7.3555342E-11
  2.3200000E-02   -9.3211369E-11
  2.3235001E-02    2.8542764E-11
  2.3270000E-02    1.0687432E-10
  2.3305001E-02    2.3672505E-11
  2.3340000E-02   -9.3869558E-11
  2.3375001E-02   -6.8925650E-11
  2.3410000E-02    5.7724058E-11
  2.3445001E-02    9.4682498E-11
  2.3480000E-02   -9.3751127E-12
  2.3514999E-02   -9.5076808E-11
  2.3550000E-02   -3.7528685E-11
  2.3584999E-02    7.1996083E-11
  2.3620000E-02    7.1750036E-11
  2.3654999E-02   -3.1392611E-11
  2.3690000E-02   -8.3180282E-11
  2.3724999E-02   -1.3377997E-11
  2.3760000E-02    7.0702957E-11
  2.3794999E-02    4.9993305E-11
  2.3830000E-02   -3.7918103E-11
  2.3864999E-02   -6.4619039E-11
  2.3900000E-02    2.2080812E-12
  2.3934999E-02    6.2239082E-11
  2.3970000E-02    3.3338454E-11
  2.4005000E-02   -3.6549909E-11
  2.4040001E-02   -4.7410381E-11
  2.4075000E-02    1.0871860E-11
  2.4110001E-02    5.3903024E-11
  2.4145000E-02    2.7043357E-11
  2.4180001E-02   -2.4774788E-11
  2.4215000E-02   -2.8836700E-11
  2.4250001E-02    1.6172485E-11
  2.4285000E-02    4.7906023E-11
  2.4320001E-02    2.9442927E-11
  2.4355000E-02   -6.4436898E-12
  2.4390001E-02   -7.3792908E-12
  2.4425000E-02    2.9765201E-11
  2.4460001E-02    5.9500530E-11
  2.4495000E-02    5.0264945E-11
  2.4529999E-02    2.4864371E-11
  2.4565000E-02    2.7405194E-11
  2.4599999E-02    6.3201451E-11
  2.4635000E-02    9.4380344E-11
  2.4669999E-02    9.5682323E-11
  2.4705000E-02    8.8815837E-11
  2.4739999E-02    1.0706539E-10
  2.4775000E-02    1.4711649E-10
  2.4809999E-02    1.8043611E-10
  2.4845000E-02    1.9984681E-10
  2.4879999E-02    2.2557335E-10
  2.4915000E-02    2.6837793E-10
  2.4950000E-02    3.1726713E-10
  2.4985000E-02    3.6844469E-10
  2.5020000E-02    4.3575074E-10
  2.5055001E-02    5.2014354E-10
  2.5090000E-02    5.9985533E-10
  2.5125001E-02    6.7248029E-10
  2.5160000E-02    7.7583223E-10
  2.5195001E-02    9.3304497E-10
  2.5230000E-02    1.1048404E-09
  2.5265001E-02    1.2462333E-09
  2.5300000E-02    1.3928364E-09
  2.5335001E-02    1.6239776E-09
  2.5370000E-02    1.9380604E-09
  2.5405001E-02    2.2447719E-09
  2.5440000E-02    2.5110933E-09
  2.5474999E-02    2.8324660E-09
  2.5510000E-02    3.2981053E-09
  2.5544999E-02    3.8567238E-09
  2.5580000E-02    4.4025015E-09
  2.5614999E-02    4.9491113E-09
  2.5650000E-02    5.6189768E-09
  2.5684999E-02    6.4717738E-09
  2.5720000E-02    7.4393558E-09
  2.5754999E-02    8.4473575E-09
  2.5790000E-02    9.5271293E-09
  2.5824999E-02    1.0779283E-08
  2.5860000E-02    1.2272264E-08
  2.5895000E-02    1.3987580E-08
  2.5930000E-02    1.5848009E-08
  2.5965000E-02    1.7829569E-08
  2.6000001E-02    2.0052754E-08
  2.6035000E-02    2.2683539E-08
  2.6070001E-02    2.5716362E-08
  2.6105000E-02    2.8978690E-08
  2.6140001E-02    3.2432681E-08
  2.6175000E-02    3.6336047E-08
  2.6210001E-02    4.0933013E-08
  2.6245000E-02    4.6108752E-08
  2.6280001E-02    5.1613117E-08
  2.6315000E-02    5.7547226E-08
  2.6350001E-02    6.4311052E-08
  2.6385000E-02    7.2068985E-08
  2.6419999E-02    8.0592386E-08
  2.6455000E-02    8.9733163E-08
  2.6489999E-02    9.9775157E-08
  2.6525000E-02    1.1111024E-07
  2.6559999E-02    1.2377632E-07
  2.6595000E-02    1.3758211E-07
  2.6629999E-02    1.5257083E-07
  2.6665000E-02    1.6908922E-07
  2.6699999E-02    1.8743864E-07
  2.6735000E-02    2.0765401E-07
  2.6769999E-02    2.2968801E-07
  2.6805000E-02    2.5370500E-07
  2.6839999E-02    2.8005820E-07
  2.6875000E-02    3.0902348E-07
  2.6910000E-02    3.4070010E-07
  2.6945001E-02    3.7517313E-07
  2.6980000E-02    4.1271181E-07