 -4.8000002E-03    1.0000000E-24
 -4.7650002E-03    1.0000002E-24
 -4.7300002E-03    1.0000001E-24
 -4.6950001E-03    1.0000000E-24
 -4.6600001E-03    1.0000001E-24
 -4.6250001E-03    1.0000002E-24
 -4.5900000E-03    1.0000002E-24
 -4.5550000E-03    1.0000000E-24
 -4.5200000E-03    1.0000001E-24
 -4.4849999E-03    1.0000002E-24
 -4.4499999E-03    1.0000001E-24
 -4.4149999E-03    9.9999972E-25
 -4.3799998E-03    1.0000002E-24
 -4.3449998E-03    1.0000005E-24
 -4.3100002E-03    1.0000003E-24
 -4.2750002E-03    1.0000002E-24
 -4.2400002E-03    1.0000000E-24
 -4.2050001E-03    9.9999982E-25
 -4.1700001E-03    1.0000002E-24
 -4.1350001E-03    1.0000002E-24
 -4.1000000E-03    9.9999982E-25
 -4.0650000E-03    1.0000002E-24
 -4.0300000E-03    1.0000003E-24
 -3.9949999E-03    9.9999972E-25
 -3.9599999E-03    9.9999943E-25
 -3.9249999E-03    9.9999992E-25
 -3.8900001E-03    1.0000003E-24
 -3.8550000E-03    1.0000002E-24
 -3.8200000E-03    1.0000003E-24
 -3.7849999E-03    1.0000005E-24
 -3.7499999E-03    1.0000003E-24
 -3.7150001E-03    1.0000001E-24
 -3.6800001E-03    1.0000002E-24
 -3.6450000E-03    1.0000001E-24
 -3.6100000E-03    9.9999992E-25
 -3.5750000E-03    1.0000003E-24
 -3.5399999E-03    1.0000003E-24
 -3.5049999E-03    9.9999963E-25
 -3.4700001E-03    9.9999992E-25
 -3.4350001E-03    1.0000006E-24
 -3.4000000E-03    9.9999972E-25
 -3.3650000E-03    9.9999943E-25
 -3.3300000E-03    1.0000007E-24
 -3.2949999E-03    1.0000006E-24
 -3.2599999E-03    9.9999933E-25
 -3.2250001E-03    9.9999963E-25
 -3.1900001E-03    1.0000007E-24
 -3.1550000E-03    1.0000001E-24
 -3.1200000E-03    9.9999992E-25
 -3.0850000E-03    1.0000011E-24
 -3.0499999E-03    1.0000010E-24
 -3.0149999E-03    9.9999953E-25
 -2.9800001E-03    9.9999943E-25
 -2.9450001E-03    1.0000006E-24
 -2.9100000E-03    1.0000000E-24
 -2.8750000E-03    9.9999933E-25
 -2.8400000E-03    1.0000001E-24
 -2.8049999E-03    1.0000009E-24
 -2.7699999E-03    9.9999992E-25
 -2.7350001E-03    9.9999963E-25
 -2.7000001E-03    1.0000007E-24
 -2.6650000E-03    1.0000006E-24
 -2.6300000E-03    9.9999923E-25
 -2.5950000E-03    9.9999923E-25
 -2.5599999E-03    1.0000008E-24
 -2.5249999E-03    1.0000008E-24
 -2.4900001E-03    1.0000005E-24
 -2.4550001E-03    1.0000009E-24
 -2.4200000E-03    1.0000000E-24
 -2.3850000E-03    9.9999884E-25
 -2.3500000E-03    9.9999953E-25
 -2.3149999E-03    1.0000002E-24
 -2.2799999E-03    9.9999953E-25
 -2.2450001E-03    1.0000005E-24
 -2.2100001E-03    1.0000016E-24
 -2.1750000E-03    9.9999953E-25
 -2.1400000E-03    9.9999844E-25
 -2.1050000E-03    1.0000008E-24
 -2.0699999E-03    1.0000012E-24
 -2.0349999E-03    9.9999933E-25
 -2.0000001E-03    9.9999982E-25
 -1.9650001E-03    1.0000017E-24
 -1.9300000E-03    1.0000004E-24
 -1.8950000E-03    9.9999903E-25
 -1.8600000E-03    1.0000004E-24
 -1.8250000E-03    1.0000008E-24
 -1.7900000E-03    9.9999913E-25
 -1.7550000E-03    9.9999884E-25
 -1.7199999E-03    9.9999992E-25
 -1.6850000E-03    1.0000005E-24
 -1.6500000E-03    1.0000003E-24
 -1.6150000E-03    9.9999982E-25
 -1.5800000E-03    9.9999972E-25
 -1.5450000E-03    1.0000002E-24
 -1.5100000E-03    1.0000006E-24
 -1.4750001E-03    1.0000001E-24
 -1.4400000E-03    1.0000001E-24
 -1.4050000E-03    1.0000008E-24
 -1.3700000E-03    1.0000005E-24
 -1.3350000E-03    9.9999972E-25
 -1.3000000E-03    9.9999923E-25
 -1.2650000E-03    9.9999953E-25
 -1.2300001E-03    1.0000003E-24
 -1.1950000E-03    1.0000000E-24
 -1.1600000E-03    9.9999982E-25
 -1.1250000E-03    1.0000000E-24
 -1.0900000E-03    1.0000002E-24
 -1.0550000E-03    1.0000003E-24
 -1.0200000E-03    1.0000000E-24
 -9.8500005E-04    9.9999992E-25
 -9.5000002E-04    1.0000003E-24
 -9.1499998E-04    1.0000004E-24
 -8.8000001E-04    1.0000004E-24
 -8.4499997E-04    1.0000003E-24
 -8.1000000E-04    9.9999982E-25
 -7.7500002E-04    1.0000001E-24
 -7.3999999E-04    1.0000003E-24
 -7.0500001E-04    9.9999953E-25
 -6.6999998E-04    9.9999923E-25
 -6.3500000E-04    9.9999992E-25
 -6.0000003E-04    1.0000003E-24
 -5.6499999E-04    1.0000004E-24
 -5.3000002E-04    1.0000006E-24
 -4.9499999E-04    1.0000002E-24
 -4.6000001E-04    9.9999982E-25
 -4.2500001E-04    1.0000000E-24
 -3.9000000E-04    1.0000002E-24
 -3.5500000E-04    1.0000003E-24
 -3.1999999E-04    1.0000006E-24
 -2.8499999E-04    1.0000003E-24
 -2.5000001E-04    9.9999992E-25
 -2.1499999E-04    9.9999893E-25
 -1.8000000E-04    9.9999903E-25
 -1.4500000E-04    1.0000003E-24
 -1.1000000E-04    1.0000001E-24
 -7.5000004E-05    9.9999972E-25
 -3.9999999E-05    9.9999992E-25
 -4.9999999E-06    1.0000003E-24
  2.9999999E-05    1.0000000E-24
  6.5000000E-05    1.0000000E-24
  9.9999997E-05    1.0000003E-24
  1.3499999E-04    1.0000007E-24
  1.7000000E-04    1.0000000E-24
  2.0500000E-04    9.9999933E-25
  2.3999999E-04    1.0000007E-24
  2.7500000E-04    1.0000013E-24
  3.1000000E-04    9.9999913E-25
  3.4500001E-04    9.9999913E-25
  3.8000001E-04    1.0000017E-24
  4.1499999E-04    1.0000009E-24
  4.4999999E-04    9.9999844E-25
  4.8500000E-04    1.0000004E-24
  5.2000000E-04    1.0000014E-24
  5.5499998E-04    9.9999874E-25
  5.9000001E-04    9.9999893E-25
  6.2499999E-04    1.0000012E-24
  6.6000002E-04    1.0000001E-24
  6.9500000E-04    9.9999933E-25
  7.3000003E-04    1.0000011E-24
  7.6500000E-04    1.0000005E-24
  7.9999998E-04    9.9999933E-25
  8.3500001E-04    1.0000007E-24
  8.6999999E-04    1.0000010E-24
  9.0500002E-04    9.9999943E-25
  9.4000000E-04    9.9999982E-25
  9.7499997E-04    1.0000018E-24
  1.0100000E-03    1.0000005E-24
  1.0450000E-03    9.9999765E-25
  1.0800000E-03    9.9999884E-25
  1.1150000E-03    1.0000012E-24
  1.1500000E-03    1.0000004E-24
  1.1849999E-03    9.9999972E-25
  1.2200000E-03    1.0000014E-24
  1.2550000E-03    1.0000008E-24
  1.2900000E-03    9.9999913E-25
  1.3250000E-03    9.9999992E-25
  1.3600000E-03    9.9999992E-25
  1.3950000E-03    9.9999903E-25
  1.4299999E-03    1.0000005E-24
  1.4650000E-03    1.0000014E-24
  1.5000000E-03    9.9999963E-25
  1.5350000E-03    1.0000005E-24
  1.5700000E-03    1.0000013E-24
  1.6050000E-03    9.9999844E-25
  1.6400000E-03    9.9999874E-25
  1.6749999E-03    1.0000013E-24
  1.7100000E-03    9.9999992E-25
  1.7450000E-03    9.9999854E-25
  1.7800000E-03    1.0000012E-24
  1.8150000E-03    1.0000019E-24
  1.8500000E-03    9.9999933E-25
  1.8850000E-03    9.9999933E-25
  1.9200000E-03    1.0000011E-24
  1.9550000E-03    1.0000003E-24
  1.9900000E-03    9.9999903E-25
  2.0250001E-03    1.0000006E-24
  2.0600001E-03    1.0000018E-24
  2.0949999E-03    1.0000007E-24
  2.1299999E-03    1.0000002E-24
  2.1650000E-03    1.0000000E-24
  2.2000000E-03    9.9999903E-25
  2.2350000E-03    9.9999884E-25
  2.2700001E-03    9.9999943E-25
  2.3050001E-03    9.9999992E-25
  2.3399999E-03    1.0000003E-24
  2.3749999E-03    1.0000009E-24
  2.4100000E-03    1.0000017E-24
  2.4450000E-03    1.0000010E-24
  2.4800000E-03    9.9999913E-25
  2.5150001E-03    9.9999854E-25
  2.5500001E-03    9.9999953E-25
  2.5849999E-03    9.9999982E-25
  2.6199999E-03    1.0000002E-24
  2.6550000E-03    1.0000009E-24
  2.6900000E-03    1.0000002E-24
  2.7250000E-03    9.9999923E-25
  2.7600001E-03    1.0000003E-24
  2.7950001E-03    1.0000006E-24
  2.8299999E-03    9.9999963E-25
  2.8649999E-03    1.0000002E-24
  2.9000000E-03    1.0000012E-24
  2.9350000E-03    1.0000007E-24
  2.9700000E-03    9.9999992E-25
  3.0050001E-03    9.9999854E-25
  3.0400001E-03    9.9999815E-25
  3.0749999E-03    1.0000002E-24
  3.1099999E-03    1.0000009E-24
  3.1450000E-03    9.9999992E-25
  3.1800000E-03    1.0000010E-24
  3.2150000E-03    1.0000020E-24
  3.2500001E-03    1.0000002E-24
  3.2850001E-03    9.9999884E-25
  3.3199999E-03    9.9999992E-25
  3.3549999E-03    1.0000009E-24
  3.3900000E-03    1.0000003E-24
  3.4250000E-03    1.0000000E-24
  3.4600000E-03    1.0000003E-24
  3.4950001E-03    1.0000005E-24
  3.5300001E-03    1.0000000E-24
  3.5649999E-03    9.9999963E-25
  3.5999999E-03    1.0000003E-24
  3.6350000E-03    1.0000000E-24
  3.6700000E-03    9.9999893E-25
  3.7050000E-03    9.9999913E-25
  3.7400001E-03    1.0000004E-24
  3.7750001E-03    1.0000008E-24
  3.8099999E-03    9.9999943E-25
  3.8449999E-03    9.9999884E-25
  3.8800000E-03    1.0000005E-24
  3.9149998E-03    1.0000017E-24
  3.9499998E-03    1.0000004E-24
  3.9849998E-03    9.9999953E-25
  4.0199999E-03    1.0000008E-24
  4.0549999E-03    1.0000009E-24
  4.0899999E-03    9.9999844E-25
  4.1250000E-03    9.9999815E-25
  4.1600000E-03    1.0000008E-24
  4.1950000E-03    1.0000016E-24
  4.2300001E-03    1.0000002E-24
  4.2650001E-03    9.9999933E-25
  4.3000001E-03    1.0000000E-24
  4.3350002E-03    1.0000000E-24
  4.3700002E-03    1.0000000E-24
  4.4049998E-03    1.0000006E-24
  4.4399998E-03    1.0000008E-24
  4.4749998E-03    1.0000005E-24
  4.5099999E-03    9.9999953E-25
  4.5449999E-03    9.9999913E-25
  4.5799999E-03    9.9999933E-25
  4.6150000E-03    9.9999913E-25
  4.6500000E-03    9.9999943E-25
  4.6850001E-03    1.0000014E-24
  4.7200001E-03    1.0000019E-24
  4.7550001E-03    9.9999972E-25
  4.7900002E-03    9.9999923E-25
  4.8250002E-03    1.0000002E-24
  4.8600002E-03    1.0000009E-24
  4.8949998E-03    1.0000009E-24
  4.9299998E-03    9.9999953E-25
  4.9649999E-03    9.9999844E-25
  4.9999999E-03    9.9999963E-25
  5.0349999E-03    1.0000009E-24
  5.0700000E-03    1.0000001E-24
  5.1050000E-03    9.9999933E-25
  5.1400000E-03    1.0000002E-24
  5.1750001E-03    1.0000005E-24
  5.2100001E-03    9.9999992E-25
  5.2450001E-03    9.9999953E-25
  5.2800002E-03    1.0000003E-24
  5.3150002E-03    1.0000011E-24
  5.3500002E-03    9.9999963E-25
  5.3849998E-03    9.9999874E-25
  5.4199998E-03    1.0000009E-24
  5.4549999E-03    1.0000015E-24
  5.4899999E-03    1.0000001E-24
  5.5249999E-03    1.0000006E-24
  5.5600000E-03    1.0000010E-24
  5.5950000E-03    9.9999943E-25
  5.6300000E-03    9.9999913E-25
  5.6650001E-03    9.9999982E-25
  5.7000001E-03    9.9999992E-25
  5.7350001E-03    1.0000016E-24
  5.7700002E-03    1.0000016E-24
  5.8050002E-03    9.9999874E-25
  5.8400002E-03    9.9999864E-25
  5.8749998E-03    1.0000002E-24
  5.9099998E-03    9.9999963E-25
  5.9449999E-03    1.0000004E-24
  5.9799999E-03    1.0000017E-24
  6.0149999E-03    1.0000006E-24
  6.0500000E-03    9.9999972E-25
  6.0850000E-03    9.9999972E-25
  6.1200000E-03    9.9999834E-25
  6.1550001E-03    9.9999884E-25
  6.1900001E-03    1.0000012E-24
  6.2250001E-03    1.0000008E-24
  6.2600002E-03    9.9999963E-25
  6.2950002E-03    1.0000006E-24
  6.3299998E-03    1.0000013E-24
  6.3649998E-03    1.0000000E-24
  6.3999998E-03    9.9999874E-25
  6.4349999E-03    9.9999864E-25
  6.4699999E-03    1.0000005E-24
  6.5049999E-03    1.0000018E-24
  6.5400000E-03    9.9999943E-25
  6.5750000E-03    9.9999844E-25
  6.6100000E-03    1.0000021E-24
  6.6450001E-03    1.0000015E-24
  6.6800001E-03    9.9999726E-25
  6.7150001E-03    9.9999893E-25
  6.7500002E-03    1.0000035E-24
  6.7850002E-03    1.0000009E-24
  6.8199998E-03    9.9999765E-25
  6.8549998E-03    1.0000012E-24
  6.8899998E-03    1.0000029E-24
  6.9249999E-03    9.9999755E-25
  6.9599999E-03    9.9999667E-25
  6.9949999E-03    1.0000017E-24
  7.0300000E-03    1.0000013E-24
  7.0650000E-03    9.9999884E-25
  7.1000000E-03    1.0000007E-24
  7.1350001E-03    1.0000007E-24
  7.1700001E-03    9.9999815E-25
  7.2050001E-03    9.9999982E-25
  7.2400002E-03    1.0000016E-24
  7.2750002E-03    9.9999972E-25
  7.3099998E-03    1.0000000E-24
  7.3449998E-03    1.0000026E-24
  7.3799998E-03    1.0000020E-24
  7.4149999E-03    9.9999913E-25
  7.4499999E-03    9.9999785E-25
  7.4850000E-03    1.0000000E-24
  7.5200000E-03    1.0000018E-24
  7.5550000E-03    1.0000002E-24
  7.5900001E-03    9.9999982E-25
  7.6250001E-03    1.0000014E-24
  7.6600001E-03    9.9999854E-25
  7.6950002E-03    9.9999677E-25
  7.7300002E-03    1.0000007E-24
  7.7650002E-03    1.0000001E-24
  7.7999998E-03    9.9999716E-25
  7.8349998E-03    1.0000021E-24
  7.8699999E-03    1.0000027E-24
  7.9049999E-03    9.9999716E-25
  7.9399999E-03    1.0000013E-24
  7.9750000E-03    1.0000054E-24
  8.0100000E-03    9.9999746E-25
  8.0450000E-03    9.9999657E-25
  8.0800001E-03    1.0000049E-24
  8.1150001E-03    1.0000016E-24
  8.1500001E-03    9.9999499E-25
  8.1850002E-03    9.9999992E-25
  8.2200002E-03    1.0000035E-24
  8.2550002E-03    9.9999844E-25
  8.2900003E-03    9.9999746E-25
  8.3250003E-03    1.0000013E-24
  8.3600003E-03    1.0000029E-24
  8.3950004E-03    1.0000003E-24
  8.4300004E-03    9.9999755E-25
  8.4650004E-03    9.9999933E-25
  8.5000005E-03    1.0000015E-24
  8.5349996E-03    1.0000000E-24
  8.5699996E-03    9.9999923E-25
  8.6049996E-03    1.0000010E-24
  8.6399997E-03    1.0000014E-24
  8.6749997E-03    9.9999972E-25
  8.7099997E-03    9.9999815E-25
  8.7449998E-03    9.9999844E-25
  8.7799998E-03    1.0000015E-24
  8.8149998E-03    1.0000019E-24
  8.8499999E-03    9.9999913E-25
  8.8849999E-03    1.0000014E-24
  8.9199999E-03    1.0000041E-24
  8.9550000E-03    9.9999785E-25
  8.9900000E-03    9.9999519E-25
  9.0250000E-03    1.0000009E-24
  9.0600001E-03    1.0000009E-24
  9.0950001E-03    9.9999844E-25
  9.1300001E-03    1.0000018E-24
  9.1650002E-03    1.0000023E-24
  9.2000002E-03    9.9999854E-25
  9.2350002E-03    9.9999903E-25
  9.2700003E-03    1.0000011E-24
  9.3050003E-03    9.9999982E-25
  9.3400003E-03    9.9999913E-25
  9.3750004E-03    1.0000007E-24
  9.4100004E-03    1.0000020E-24
  9.4450004E-03    1.0000000E-24
  9.4799995E-03    9.9999795E-25
  9.5149996E-03    1.0000007E-24
  9.5499996E-03    1.0000017E-24
  9.5849996E-03    9.9999805E-25
  9.6199997E-03    1.0000001E-24
  9.6549997E-03    1.0000041E-24
  9.6899997E-03    1.0000001E-24
  9.7249998E-03    9.9999834E-25
  9.7599998E-03    1.0000026E-24
  9.7949998E-03    1.0000008E-24
  9.8299999E-03    9.9999667E-25
  9.8649999E-03    9.9999953E-25
  9.8999999E-03    1.0000004E-24
  9.9350000E-03    9.9999893E-25
  9.9700000E-03    1.0000030E-24
  1.0005000E-02    1.0000031E-24
  1.0040000E-02    9.9999726E-25
  1.0075000E-02    9.9999755E-25
  1.0110000E-02    1.0000004E-24
  1.0145000E-02    9.9999903E-25
  1.0180000E-02    9.9999972E-25
  1.0215000E-02    1.0000024E-24
  1.0250000E-02    1.0000010E-24
  1.0285000E-02    9.9999913E-25
  1.0320000E-02    9.9999982E-25
  1.0355000E-02    1.0000013E-24
  1.0390000E-02    1.0000013E-24
  1.0425000E-02    9.9999963E-25
  1.0460000E-02    1.0000000E-24
  1.0495000E-02    1.0000011E-24
  1.0530000E-02    9.9999874E-25
  1.0565000E-02    9.9999726E-25
  1.0600000E-02    1.0000011E-24
  1.0635000E-02    1.0000031E-24
  1.0670000E-02    9.9999953E-25
  1.0705000E-02    9.9999874E-25
  1.0740000E-02    1.0000011E-24
  1.0775000E-02    1.0000008E-24
  1.0810000E-02    9.9999913E-25
  1.0845000E-02    9.9999893E-25
  1.0880000E-02    1.0000007E-24
  1.0915000E-02    1.0000014E-24
  1.0950000E-02    9.9999992E-25
  1.0985000E-02    1.0000004E-24
  1.1020000E-02    1.0000022E-24
  1.1055000E-02    1.0000004E-24
  1.1090000E-02    9.9999834E-25
  1.1125000E-02    1.0000000E-24
  1.1160000E-02    1.0000008E-24
  1.1195000E-02    9.9999933E-25
  1.1230000E-02    9.9999923E-25
  1.1265000E-02    9.9999963E-25
  1.1300000E-02    9.9999963E-25
  1.1335000E-02    1.0000003E-24
  1.1370000E-02    9.9999982E-25
  1.1405000E-02    9.9999923E-25
  1.1440000E-02    1.0000004E-24
  1.1475000E-02    1.0000009E-24
  1.1510000E-02    1.0000000E-24
  1.1545000E-02    1.0000006E-24
  1.1580000E-02    1.0000016E-24
  1.1615000E-02    1.0000009E-24
  1.1650000E-02    9.9999923E-25
  1.1685000E-02    9.9999913E-25
  1.1720000E-02    9.9999963E-25
  1.1755000E-02    9.9999903E-25
  1.1790000E-02    9.9999844E-25
  1.1825000E-02    9.9999982E-25
  1.1860000E-02    1.0000018E-24
  1.1895000E-02    1.0000013E-24
  1.1930000E-02    1.0000005E-24
  1.1965000E-02    1.0000018E-24
  1.2000000E-02    1.0000007E-24
  1.2035000E-02    9.9999716E-25
  1.2070000E-02    9.9999884E-25
  1.2105000E-02    1.0000030E-24
  1.2140000E-02    1.0000003E-24
  1.2175000E-02    9.9999834E-25
  1.2210000E-02    1.0000029E-24
  1.2245000E-02    1.0000026E-24
  1.2280000E-02    9.9999598E-25
  1.2315000E-02    9.9999716E-25
  1.2350000E-02    1.0000021E-24
  1.2385000E-02    9.9999963E-25
  1.2420000E-02    9.9999903E-25
  1.2455000E-02    1.0000035E-24
  1.2490000E-02    1.0000023E-24
  1.2525000E-02    9.9999844E-25
  1.2560000E-02    9.9999953E-25
  1.2595000E-02    1.0000000E-24
  1.2630000E-02    9.9999844E-25
  1.2665000E-02    9.9999972E-25
  1.2700000E-02    1.0000005E-24
  1.2735000E-02    1.0000001E-24
  1.2770000E-02    1.0000019E-24
  1.2805000E-02    1.0000027E-24
  1.2840000E-02    9.9999913E-25
  1.2875000E-02    9.9999686E-25
  1.2910000E-02    9.9999884E-25
  1.2945000E-02    1.0000000E-24
  1.2980000E-02    9.9999834E-25
  1.3015000E-02    9.9999844E-25
  1.3050000E-02    1.0000028E-24
  1.3085000E-02    1.0000038E-24
  1.3120000E-02    9.9999844E-25
  1.3155000E-02    9.9999854E-25
  1.3190000E-02    1.0000041E-24
  1.3225000E-02    1.0000015E-24
  1.3260000E-02    9.9999519E-25
  1.3295000E-02    9.9999854E-25
  1.3330000E-02    1.0000051E-24
  1.3365000E-02    1.0000025E-24
  1.3400000E-02    9.9999400E-25
  1.3435000E-02    9.9999361E-25
  1.3470000E-02    1.0000060E-24
  1.3505000E-02    1.0000124E-24
  1.3540000E-02    9.9999529E-25
  1.3575000E-02    9.9998020E-25
  1.3610000E-02    1.0000012E-24
  1.3645000E-02    1.0000308E-24
  1.3680000E-02    1.0000099E-24
  1.3715000E-02    9.9995752E-25
  1.3750000E-02    9.9997083E-25
  1.3785000E-02    1.0000558E-24
  1.3820000E-02    1.0000612E-24
  1.3855000E-02    9.9993070E-25
  1.3890000E-02    9.9988583E-25
  1.3925000E-02    1.0000731E-24
  1.3960000E-02    1.0001965E-24
  1.3995000E-02    9.9995062E-25
  1.4030000E-02    9.9968842E-25
  1.4065000E-02    9.9997685E-25
  1.4100000E-02    1.0004624E-24
  1.4135000E-02    1.0001775E-24
  1.4170000E-02    9.9935779E-25
  1.4205000E-02    9.9953814E-25
  1.4240000E-02    1.0008259E-24
  1.4275000E-02    1.0009441E-24
  1.4310000E-02    9.9905250E-25
  1.4345000E-02    9.9829677E-25
  1.4380000E-02    1.0008851E-24
  1.4415000E-02    1.0028136E-24
  1.4450000E-02    9.9956062E-25
  1.4485000E-02    9.9567677E-25
  1.4520000E-02    9.9929941E-25
  1.4555000E-02    1.0061977E-24
  1.4590000E-02    1.0029814E-24
  1.4625000E-02    9.9175968E-25
  1.4660000E-02    9.9300115E-25
  1.4695000E-02    1.0099609E-24
  1.4730000E-02    1.0134641E-24
  1.4765000E-02    9.8959179E-25
  1.4800000E-02    9.7690030E-25
  1.4835000E-02    1.0079566E-24
  1.4870000E-02    1.0364231E-24
  1.4905000E-02    9.9994302E-25
  1.4940000E-02    9.4667036E-25
  1.4975000E-02    9.8303862E-25
  1.5010000E-02    1.0724365E-24
  1.5045000E-02    1.0479635E-24
  1.5080000E-02    9.0990047E-25
  1.5115000E-02    9.0124035E-25
  1.5150000E-02    1.0990982E-24
  1.5185000E-02    1.1753108E-24
  1.5220000E-02    9.1301075E-25
  1.5255000E-02    7.1801493E-25
  1.5290000E-02    1.0343764E-24
  1.5325000E-02    1.4184613E-24
  1.5360000E-02    1.0864794E-24
  1.5395000E-02    4.2517103E-25
  1.5430000E-02    6.8806534E-25
  1.5465000E-02    1.7244921E-24
  1.5500000E-02    1.6848732E-24
  1.5535000E-02    1.8522773E-25
  1.5570000E-02   -2.4837466E-25
  1.5605000E-02    1.7558188E-24
  1.5640000E-02    3.0328314E-24
  1.5675001E-02    5.9054384E-25
  1.5710000E-02   -2.0337412E-24
  1.5745001E-02    5.8129114E-25
  1.5780000E-02    5.1775260E-24
  1.5814999E-02    2.9782822E-24
  1.5850000E-02   -4.2736902E-24
  1.5884999E-02   -3.5555764E-24
  1.5920000E-02    6.9541197E-24
  1.5954999E-02    9.4258733E-24
  1.5990000E-02   -4.6049972E-24
  1.6024999E-02   -1.2762173E-23
  1.6060000E-02    4.3040898E-24
  1.6094999E-02    2.1484871E-23
  1.6130000E-02    3.2127013E-24
  1.6164999E-02   -2.7039896E-23
  1.6200000E-02   -1.1518302E-23
  1.6235000E-02    3.6101506E-23
  1.6270000E-02    3.0340660E-23
  1.6305000E-02   -3.8215082E-23
  1.6340001E-02   -5.3220930E-23
  1.6375000E-02    3.7424691E-23
  1.6410001E-02    8.8903570E-23
  1.6445000E-02   -1.9978865E-23
  1.6480001E-02   -1.2838686E-22
  1.6515000E-02   -1.3729132E-23
  1.6550001E-02    1.7559083E-22
  1.6585000E-02    8.0760260E-23
  1.6620001E-02   -2.1367028E-22
  1.6655000E-02   -1.8246197E-22
  1.6690001E-02    2.3512013E-22
  1.6725000E-02    3.3417067E-22
  1.6759999E-02   -2.0802337E-22
  1.6795000E-02   -5.2942977E-22
  1.6829999E-02    1.0703401E-22
  1.6865000E-02    7.6643196E-22
  1.6899999E-02    1.1796247E-22
  1.6935000E-02   -1.0086997E-21
  1.6969999E-02   -5.0626922E-22
  1.7005000E-02    1.2084248E-21
  1.7039999E-02    1.1103010E-21
  1.7075000E-02   -1.2656983E-21
  1.7109999E-02   -1.9494034E-21
  1.7145000E-02    1.0538316E-21
  1.7180000E-02    3.0201695E-21
  1.7215000E-02   -3.8638049E-22
  1.7250000E-02   -4.2347673E-21
  1.7285001E-02   -9.4119694E-22
  1.7320000E-02    5.4165281E-21
  1.7355001E-02    3.1570146E-21
  1.7390000E-02   -6.2287298E-21
  1.7425001E-02   -6.4305352E-21
  1.7460000E-02    6.1726394E-21
  1.7495001E-02    1.0824421E-20
  1.7530000E-02   -4.5400604E-21
  1.7565001E-02   -1.6149596E-20
  1.7600000E-02    4.6610845E-22
  1.7635001E-02    2.1853899E-20
  1.7670000E-02    7.0204305E-21
  1.7704999E-02   -2.6829923E-20
  1.7740000E-02   -1.8796348E-20
  1.7774999E-02    2.9296466E-20
  1.7810000E-02    3.5394732E-20
  1.7844999E-02   -2.6672646E-20
  1.7880000E-02   -5.6564387E-20
  1.7914999E-02    1.5638617E-20
  1.7950000E-02    8.0771705E-20
  1.7984999E-02    7.6594857E-21
  1.8020000E-02   -1.0455682E-19
  1.8054999E-02   -4.7034158E-20
  1.8090000E-02    1.2196278E-19
  1.8124999E-02    1.0534420E-19
  1.8160000E-02   -1.2406625E-19
  1.8195000E-02   -1.8305671E-19
  1.8230001E-02    9.8966325E-20
  1.8265000E-02    2.7641558E-19
  1.8300001E-02   -3.2397992E-20
  1.8335000E-02   -3.7521404E-19
  1.8370001E-02   -9.0555533E-20
  1.8405000E-02    4.6058781E-19
  1.8440001E-02    2.8245380E-19
  1.8475000E-02   -5.0322034E-19
  1.8510001E-02   -5.4883434E-19
  1.8545000E-02    4.6282787E-19
  1.8580001E-02    8.8200749E-19
  1.8615000E-02   -2.8979583E-19
  1.8650001E-02   -1.2535454E-18
  1.8685000E-02   -6.9779625E-20
  1.8719999E-02    1.6065459E-18
  1.8755000E-02    6.6467871E-19
  1.8789999E-02   -1.8491343E-18
  1.8825000E-02   -1.5238743E-18
  1.8859999E-02    1.8517336E-18
  1.8895000E-02    2.6365425E-18
  1.8929999E-02   -1.4511191E-18
  1.8965000E-02   -3.9278907E-18
  1.8999999E-02    4.6496541E-19
  1.9035000E-02    5.2336516E-18
  1.9069999E-02    1.2798788E-18
  1.9105000E-02   -6.2781515E-18
  1.9140000E-02   -3.9025529E-18
  1.9175000E-02    6.6634647E-18
  1.9210000E-02    7.4068267E-18
  1.9245001E-02   -5.8790257E-18
  1.9280000E-02   -1.1606347E-17
  1.9315001E-02    3.3427206E-18
  1.9350000E-02    1.6045327E-17
  1.9385001E-02    1.5167586E-18
  1.9420000E-02   -1.9928971E-17
  1.9455001E-02   -9.1277511E-18
  1.9490000E-02    2.2086561E-17
  1.9525001E-02    1.9594696E-17
  1.9560000E-02   -2.0993528E-17
  1.9595001E-02   -3.2476729E-17
  1.9630000E-02    1.4885770E-17
  1.9664999E-02    4.6552901E-17
  1.9700000E-02   -1.9930849E-18
  1.9734999E-02   -5.9615019E-17
  1.9770000E-02   -1.9085839E-17
  1.9804999E-02    6.8352555E-17
  1.9840000E-02    4.8866949E-17
  1.9874999E-02   -6.8407830E-17
  1.9910000E-02   -8.6354949E-17
  1.9944999E-02    5.4684742E-17
  1.9980000E-02    1.2837798E-16
  2.0014999E-02   -2.1997050E-17
  2.0050000E-02   -1.6900658E-16
  2.0085000E-02   -3.3902153E-17
  2.0120000E-02    1.9922554E-16
  2.0155000E-02    1.1490415E-16
  2.0190001E-02   -2.0707751E-16
  2.0225000E-02   -2.1884123E-16
  2.0260001E-02    1.7849823E-16
  2.0295000E-02    3.3769226E-16
  2.0330001E-02   -9.9050643E-17
  2.0365000E-02   -4.5602825E-16
  2.0400001E-02   -4.3319723E-17
  2.0435000E-02    5.5016341E-16
  2.0470001E-02    2.5455206E-16
  2.0505000E-02   -5.8855121E-16
  2.0540001E-02   -5.3001250E-16
  2.0575000E-02    5.3401017E-16
  2.0609999E-02    8.4986580E-16
  2.0645000E-02   -3.4826734E-16
  2.0679999E-02   -1.1751499E-15
  2.0715000E-02   -9.4500939E-19
  2.0749999E-02    1.4457270E-15
  2.0785000E-02    5.3036555E-16
  2.0819999E-02   -1.5814779E-15
  2.0855000E-02   -1.2300071E-15
  2.0889999E-02    1.4881181E-15
  2.0925000E-02    2.0517647E-15
  2.0959999E-02   -1.0687673E-15
  2.0995000E-02   -2.9000026E-15
  2.1029999E-02    2.4171218E-16
  2.1065000E-02    3.6270514E-15
  2.1100000E-02    1.0362240E-15
  2.1135001E-02   -4.0368231E-15
  2.1170000E-02   -2.7427156E-15
  2.1205001E-02    3.8997757E-15
  2.1240000E-02    4.7630734E-15
  2.1275001E-02   -2.9815452E-15
  2.1310000E-02   -6.8689370E-15
  2.1345001E-02    1.0858687E-15
  2.1380000E-02    8.7094028E-15
  2.1415001E-02    1.8901564E-15
  2.1450000E-02   -9.8217799E-15
  2.1485001E-02   -5.8935816E-15
  2.1520000E-02    9.6692911E-15
  2.1555001E-02    1.0655341E-14
  2.1590000E-02   -7.7096905E-15
  2.1624999E-02   -1.5644932E-14
  2.1660000E-02    3.4956774E-15
  2.1694999E-02    2.0055267E-14
  2.1730000E-02    3.1994728E-15
  2.1764999E-02   -2.2833781E-14
  2.1800000E-02   -1.2243138E-14
  2.1834999E-02    2.2774685E-14
  2.1870000E-02    2.3015056E-14
  2.1904999E-02   -1.8678267E-14
  2.1940000E-02   -3.4316279E-14
  2.1974999E-02    9.5773651E-15
  2.2010000E-02    4.4350713E-14
  2.2045000E-02    4.9873948E-15
  2.2080000E-02   -5.0810711E-14
  2.2115000E-02   -2.4674370E-14
  2.2150001E-02    5.1094782E-14
  2.2185000E-02    4.8079728E-14
  2.2220001E-02   -4.2667262E-14
  2.2255000E-02   -7.2570869E-14
  2.2290001E-02    2.3548380E-14
  2.2325000E-02    9.4283488E-14
  2.2360001E-02    7.1074560E-15
  2.2395000E-02   -1.0834484E-13
  2.2430001E-02   -4.8418836E-14
  2.2465000E-02    1.0937152E-13
  2.2500001E-02    9.7278725E-14
  2.2535000E-02   -9.2249200E-14
  2.2569999E-02   -1.4807793E-13
  2.2605000E-02    5.3155898E-14
  2.2639999E-02    1.9278772E-13
  2.2675000E-02    9.2783777E-15
  2.2709999E-02   -2.2151095E-13
  2.2745000E-02   -9.2831985E-14
  2.2779999E-02    2.2357917E-13
  2.2815000E-02    1.9080547E-13
  2.2849999E-02   -1.8917618E-13
  2.2885000E-02   -2.9162762E-13
  2.2919999E-02    1.1138370E-13
  2.2955000E-02    3.7921622E-13
  2.2990000E-02    1.1597673E-14
  2.3025000E-02   -4.3426978E-13
  2.3060000E-02   -1.7438510E-13
  2.3095001E-02    4.3658645E-13
  2.3130000E-02    3.6295980E-13
  2.3165001E-02   -3.6830291E-13
  2.3200000E-02   -5.5426448E-13
  2.3235001E-02    2.1780373E-13
  2.3270000E-02    7.1731938E-13
  2.3305001E-02    1.6253366E-14
  2.3340000E-02   -8.1607008E-13
  2.3375001E-02   -3.2143743E-13
  2.3410000E-02    8.1407201E-13
  2.3445001E-02    6.6940930E-13
  2.3480000E-02   -6.8068375E-13
  2.3514999E-02   -1.0159423E-12
  2.3550000E-02    3.9813086E-13
  2.3584999E-02    1.3037797E-12
  2.3620000E-02    3.1596460E-14
  2.3654999E-02   -1.4686122E-12
  2.3690000E-02   -5.8124892E-13
  2.3724999E-02    1.4481019E-12
  2.3760000E-02    1.1957484E-12
  2.3794999E-02   -1.1930708E-12
  2.3830000E-02   -1.7936887E-12
  2.3864999E-02    6.7963105E-13
  2.3900000E-02    2.2739293E-12
  2.3934999E-02    7.9801732E-14
  2.3970000E-02   -2.5274101E-12
  2.4005000E-02   -1.0288145E-12
  2.4040001E-02    2.4535267E-12
  2.4075000E-02    2.0648778E-12
  2.4110001E-02   -1.9794509E-12
  2.4145000E-02   -3.0448083E-12
  2.4180001E-02    1.0794742E-12
  2.4215000E-02    3.7985353E-12
  2.4250001E-02    2.0879063E-13
  2.4285000E-02   -4.1510424E-12
  2.4320001E-02   -1.7751427E-12
  2.4355000E-02    3.9505868E-12
  2.4390001E-02    3.4378086E-12
  2.4425000E-02   -3.0996635E-12
  2.4460001E-02   -4.9571207E-12
  2.4495000E-02    1.5838966E-12
  2.4529999E-02    6.0621976E-12
  2.4565000E-02    5.0669072E-13
  2.4599999E-02   -6.4891729E-12
  2.4635000E-02   -2.9695755E-12
  2.4669999E-02    6.0266128E-12
  2.4705000E-02    5.4991138E-12
  2.4739999E-02   -4.5618279E-12
  2.4775000E-02   -7.7156771E-12
  2.4809999E-02    2.1200012E-12
  2.4845000E-02    9.2132760E-12
  2.4879999E-02    1.1120948E-12
  2.4915000E-02   -9.6216264E-12
  2.4950000E-02   -4.7853288E-12
  2.4985000E-02    8.6741734E-12
  2.5020000E-02    8.4149276E-12
  2.5055001E-02   -6.2714937E-12
  2.5090000E-02   -1.1435337E-11
  2.5125001E-02    2.5281500E-12
  2.5160000E-02    1.3278927E-11
  2.5195001E-02    2.2086280E-12
  2.5230000E-02   -1.3468985E-11
  2.5265001E-02   -7.3762975E-12
  2.5300000E-02    1.1713372E-11
  2.5335001E-02    1.2254138E-11
  2.5370000E-02   -7.9821818E-12
  2.5405001E-02   -1.6056486E-11
  2.5440000E-02    2.5535394E-12
  2.5474999E-02    1.8051961E-11
  2.5510000E-02    3.9861521E-12
  2.5544999E-02   -1.7691130E-11
  2.5580000E-02   -1.0793905E-11
  2.5614999E-02    1.4722631E-11
  2.5650000E-02    1.6873725E-11
  2.5684999E-02   -9.2740971E-12
  2.5720000E-02   -2.1219507E-11
  2.5754999E-02    1.8801176E-12
  2.5790000E-02    2.2979547E-11
  2.5824999E-02    6.5562781E-12
  2.5860000E-02   -2.1614488E-11
  2.5895000E-02   -1.4869168E-11
  2.5930000E-02    1.7021733E-11
  2.5965000E-02    2.1793135E-11
  2.6000001E-02   -9.5987168E-12
  2.6035000E-02   -2.6161916E-11
  2.6070001E-02    2.2702668E-13
  2.6105000E-02    2.7110831E-11
  2.6140001E-02    9.8278469E-12
  2.6175000E-02   -2.4247304E-11
  2.6210001E-02   -1.9093154E-11
  2.6245000E-02    1.7756146E-11
  2.6280001E-02    2.6117091E-11
  2.6315000E-02   -8.4137497E-12
  2.6350001E-02   -2.9713433E-11
  2.6385000E-02   -2.4998998E-12
  2.6419999E-02    2.9178826E-11
  2.6455000E-02    1.3383829E-11
  2.6489999E-02   -2.4441105E-11
  2.6525000E-02   -2.2567476E-11
  2.6559999E-02    1.6107378E-11
  2.6595000E-02    2.8591667E-11
  2.6629999E-02   -5.3936911E-12
  2.6665000E-02   -3.0468496E-11
  2.6699999E-02   -6.0571183E-12
  2.6735000E-02    2.7870683E-11
  2.6769999E-02    1.6443813E-11
  2.6805000E-02   -2.1211840E-11
  2.6839999E-02   -2.4116214E-11
  2.6875000E-02    1.1595858E-11
  2.6910000E-02    2.7870178E-11
  2.6945001E-02   -6.3868154E-13
  2.6980000E-02   -2.7172445E-11