 -4.8000002E-03    1.0000000E-24
 -4.7650002E-03    1.0000002E-24
 -4.7300002E-03    1.0000001E-24
 -4.6950001E-03    1.0000002E-24
 -4.6600001E-03    1.0000002E-24
 -4.6250001E-03    1.0000000E-24
 -4.5900000E-03    1.0000000E-24
 -4.5550000E-03    1.0000001E-24
 -4.5200000E-03    1.0000001E-24
 -4.4849999E-03    9.9999972E-25
 -4.4499999E-03    1.0000000E-24
 -4.4149999E-03    1.0000005E-24
 -4.3799998E-03    1.0000005E-24
 -4.3449998E-03    9.9999982E-25
 -4.3100002E-03    9.9999982E-25
 -4.2750002E-03    1.0000006E-24
 -4.2400002E-03    1.0000005E-24
 -4.2050001E-03    9.9999972E-25
 -4.1700001E-03    9.9999963E-25
 -4.1350001E-03    1.0000003E-24
 -4.1000000E-03    1.0000005E-24
 -4.0650000E-03    1.0000001E-24
 -4.0300000E-03    9.9999982E-25
 -3.9949999E-03    9.9999972E-25
 -3.9599999E-03    1.0000000E-24
 -3.9249999E-03    1.0000004E-24
 -3.8900001E-03    1.0000001E-24
 -3.8550000E-03    9.9999982E-25
 -3.8200000E-03    1.0000002E-24
 -3.7849999E-03    1.0000005E-24
 -3.7499999E-03    9.9999992E-25
 -3.7150001E-03    9.9999943E-25
 -3.6800001E-03    1.0000001E-24
 -3.6450000E-03    1.0000006E-24
 -3.6100000E-03    1.0000001E-24
 -3.5750000E-03    9.9999972E-25
 -3.5399999E-03    1.0000002E-24
 -3.5049999E-03    1.0000006E-24
 -3.4700001E-03    1.0000004E-24
 -3.4350001E-03    9.9999963E-25
 -3.4000000E-03    9.9999963E-25
 -3.3650000E-03    1.0000000E-24
 -3.3300000E-03    9.9999982E-25
 -3.2949999E-03    1.0000001E-24
 -3.2599999E-03    1.0000006E-24
 -3.2250001E-03    1.0000001E-24
 -3.1900001E-03    9.9999972E-25
 -3.1550000E-03    1.0000004E-24
 -3.1200000E-03    1.0000003E-24
 -3.0850000E-03    9.9999943E-25
 -3.0499999E-03    9.9999992E-25
 -3.0149999E-03    1.0000012E-24
 -2.9800001E-03    1.0000007E-24
 -2.9450001E-03    9.9999913E-25
 -2.9100000E-03    9.9999943E-25
 -2.8750000E-03    1.0000004E-24
 -2.8400000E-03    9.9999963E-25
 -2.8049999E-03    9.9999913E-25
 -2.7699999E-03    1.0000008E-24
 -2.7350001E-03    1.0000011E-24
 -2.7000001E-03    9.9999982E-25
 -2.6650000E-03    9.9999982E-25
 -2.6300000E-03    1.0000006E-24
 -2.5950000E-03    9.9999972E-25
 -2.5599999E-03    9.9999953E-25
 -2.5249999E-03    1.0000009E-24
 -2.4900001E-03    1.0000008E-24
 -2.4550001E-03    9.9999943E-25
 -2.4200000E-03    1.0000000E-24
 -2.3850000E-03    1.0000010E-24
 -2.3500000E-03    9.9999953E-25
 -2.3149999E-03    9.9999874E-25
 -2.2799999E-03    1.0000006E-24
 -2.2450001E-03    1.0000010E-24
 -2.2100001E-03    9.9999903E-25
 -2.1750000E-03    9.9999913E-25
 -2.1400000E-03    1.0000011E-24
 -2.1050000E-03    1.0000005E-24
 -2.0699999E-03    9.9999884E-25
 -2.0349999E-03    9.9999982E-25
 -2.0000001E-03    1.0000014E-24
 -1.9650001E-03    1.0000003E-24
 -1.9300000E-03    9.9999953E-25
 -1.8950000E-03    1.0000008E-24
 -1.8600000E-03    1.0000008E-24
 -1.8250000E-03    9.9999933E-25
 -1.7900000E-03    9.9999903E-25
 -1.7550000E-03    1.0000006E-24
 -1.7199999E-03    1.0000006E-24
 -1.6850000E-03    1.0000005E-24
 -1.6500000E-03    1.0000004E-24
 -1.6150000E-03    9.9999923E-25
 -1.5800000E-03    9.9999864E-25
 -1.5450000E-03    9.9999992E-25
 -1.5100000E-03    1.0000007E-24
 -1.4750001E-03    1.0000000E-24
 -1.4400000E-03    9.9999992E-25
 -1.4050000E-03    1.0000006E-24
 -1.3700000E-03    1.0000003E-24
 -1.3350000E-03    9.9999893E-25
 -1.3000000E-03    9.9999884E-25
 -1.2650000E-03    1.0000008E-24
 -1.2300001E-03    1.0000020E-24
 -1.1950000E-03    1.0000006E-24
 -1.1600000E-03    9.9999953E-25
 -1.1250000E-03    1.0000002E-24
 -1.0900000E-03    1.0000006E-24
 -1.0550000E-03    9.9999953E-25
 -1.0200000E-03    9.9999923E-25
 -9.8500005E-04    1.0000004E-24
 -9.5000002E-04    1.0000007E-24
 -9.1499998E-04    9.9999992E-25
 -8.8000001E-04    1.0000000E-24
 -8.4499997E-04    1.0000001E-24
 -8.1000000E-04    9.9999963E-25
 -7.7500002E-04    1.0000002E-24
 -7.3999999E-04    1.0000012E-24
 -7.0500001E-04    1.0000003E-24
 -6.6999998E-04    9.9999903E-25
 -6.3500000E-04    1.0000001E-24
 -6.0000003E-04    1.0000009E-24
 -5.6499999E-04    9.9999923E-25
 -5.3000002E-04    9.9999844E-25
 -4.9499999E-04    1.0000005E-24
 -4.6000001E-04    1.0000017E-24
 -4.2500001E-04    9.9999943E-25
 -3.9000000E-04    9.9999854E-25
 -3.5500000E-04    1.0000014E-24
 -3.1999999E-04    1.0000021E-24
 -2.8499999E-04    9.9999953E-25
 -2.5000001E-04    9.9999874E-25
 -2.1499999E-04    1.0000014E-24
 -1.8000000E-04    1.0000016E-24
 -1.4500000E-04    9.9999884E-25
 -1.1000000E-04    9.9999864E-25
 -7.5000004E-05    1.0000007E-24
 -3.9999999E-05    1.0000001E-24
 -4.9999999E-06    9.9999854E-25
  2.9999999E-05    9.9999982E-25
  6.5000000E-05    1.0000015E-24
  9.9999997E-05    1.0000003E-24
  1.3499999E-04    9.9999982E-25
  1.7000000E-04    1.0000014E-24
  2.0500000E-04    1.0000009E-24
  2.3999999E-04    9.9999884E-25
  2.7500000E-04    9.9999992E-25
  3.1000000E-04    1.0000016E-24
  3.4500001E-04    9.9999963E-25
  3.8000001E-04    9.9999815E-25
  4.1499999E-04    1.0000001E-24
  4.4999999E-04    1.0000012E-24
  4.8500000E-04    9.9999913E-25
  5.2000000E-04    9.9999805E-25
  5.5499998E-04    1.0000001E-24
  5.9000001E-04    1.0000019E-24
  6.2499999E-04    1.0000006E-24
  6.6000002E-04    9.9999913E-25
  6.9500000E-04    1.0000001E-24
  7.3000003E-04    1.0000010E-24
  7.6500000E-04    1.0000007E-24
  7.9999998E-04    1.0000003E-24
  8.3500001E-04    1.0000000E-24
  8.6999999E-04    9.9999982E-25
  9.0500002E-04    1.0000002E-24
  9.4000000E-04    9.9999992E-25
  9.7499997E-04    9.9999884E-25
  1.0100000E-03    9.9999982E-25
  1.0450000E-03    1.0000011E-24
  1.0800000E-03    1.0000005E-24
  1.1150000E-03    9.9999953E-25
  1.1500000E-03    9.9999933E-25
  1.1849999E-03    9.9999943E-25
  1.2200000E-03    1.0000005E-24
  1.2550000E-03    1.0000006E-24
  1.2900000E-03    9.9999913E-25
  1.3250000E-03    9.9999963E-25
  1.3600000E-03    1.0000018E-24
  1.3950000E-03    1.0000016E-24
  1.4299999E-03    9.9999884E-25
  1.4650000E-03    9.9999785E-25
  1.5000000E-03    1.0000001E-24
  1.5350000E-03    1.0000022E-24
  1.5700000E-03    1.0000008E-24
  1.6050000E-03    9.9999913E-25
  1.6400000E-03    9.9999982E-25
  1.6749999E-03    1.0000010E-24
  1.7100000E-03    9.9999992E-25
  1.7450000E-03    9.9999775E-25
  1.7800000E-03    9.9999893E-25
  1.8150000E-03    1.0000028E-24
  1.8500000E-03    1.0000022E-24
  1.8850000E-03    9.9999874E-25
  1.9200000E-03    9.9999884E-25
  1.9550000E-03    1.0000005E-24
  1.9900000E-03    1.0000003E-24
  2.0250001E-03    9.9999982E-25
  2.0600001E-03    1.0000005E-24
  2.0949999E-03    1.0000009E-24
  2.1299999E-03    1.0000006E-24
  2.1650000E-03    9.9999972E-25
  2.2000000E-03    9.9999913E-25
  2.2350000E-03    1.0000000E-24
  2.2700001E-03    9.9999992E-25
  2.3050001E-03    9.9999884E-25
  2.3399999E-03    1.0000009E-24
  2.3749999E-03    1.0000026E-24
  2.4100000E-03    9.9999933E-25
  2.4450000E-03    9.9999765E-25
  2.4800000E-03    1.0000010E-24
  2.5150001E-03    1.0000016E-24
  2.5500001E-03    9.9999874E-25
  2.5849999E-03    9.9999953E-25
  2.6199999E-03    1.0000023E-24
  2.6550000E-03    1.0000012E-24
  2.6900000E-03    9.9999815E-25
  2.7250000E-03    9.9999854E-25
  2.7600001E-03    1.0000007E-24
  2.7950001E-03    1.0000003E-24
  2.8299999E-03    9.9999874E-25
  2.8649999E-03    1.0000002E-24
  2.9000000E-03    1.0000022E-24
  2.9350000E-03    1.0000006E-24
  2.9700000E-03    9.9999953E-25
  3.0050001E-03    1.0000009E-24
  3.0400001E-03    1.0000004E-24
  3.0749999E-03    9.9999884E-25
  3.1099999E-03    9.9999963E-25
  3.1450000E-03    1.0000007E-24
  3.1800000E-03    9.9999943E-25
  3.2150000E-03    9.9999903E-25
  3.2500001E-03    1.0000009E-24
  3.2850001E-03    1.0000013E-24
  3.3199999E-03    9.9999923E-25
  3.3549999E-03    9.9999854E-25
  3.3900000E-03    1.0000000E-24
  3.4250000E-03    1.0000011E-24
  3.4600000E-03    1.0000005E-24
  3.4950001E-03    9.9999963E-25
  3.5300001E-03    9.9999982E-25
  3.5649999E-03    1.0000004E-24
  3.5999999E-03    9.9999972E-25
  3.6350000E-03    9.9999903E-25
  3.6700000E-03    1.0000007E-24
  3.7050000E-03    1.0000018E-24
  3.7400001E-03    9.9999992E-25
  3.7750001E-03    9.9999854E-25
  3.8099999E-03    9.9999972E-25
  3.8449999E-03    1.0000005E-24
  3.8800000E-03    9.9999982E-25
  3.9149998E-03    9.9999963E-25
  3.9499998E-03    1.0000004E-24
  3.9849998E-03    1.0000020E-24
  4.0199999E-03    1.0000018E-24
  4.0549999E-03    9.9999903E-25
  4.0899999E-03    9.9999824E-25
  4.1250000E-03    1.0000007E-24
  4.1600000E-03    1.0000011E-24
  4.1950000E-03    9.9999923E-25
  4.2300001E-03    9.9999982E-25
  4.2650001E-03    1.0000010E-24
  4.3000001E-03    1.0000000E-24
  4.3350002E-03    9.9999943E-25
  4.3700002E-03    1.0000001E-24
  4.4049998E-03    9.9999972E-25
  4.4399998E-03    9.9999903E-25
  4.4749998E-03    1.0000004E-24
  4.5099999E-03    1.0000017E-24
  4.5449999E-03    9.9999923E-25
  4.5799999E-03    9.9999716E-25
  4.6150000E-03    1.0000001E-24
  4.6500000E-03    1.0000026E-24
  4.6850001E-03    9.9999953E-25
  4.7200001E-03    9.9999844E-25
  4.7550001E-03    1.0000027E-24
  4.7900002E-03    1.0000036E-24
  4.8250002E-03    9.9999943E-25
  4.8600002E-03    9.9999755E-25
  4.8949998E-03    9.9999943E-25
  4.9299998E-03    9.9999943E-25
  4.9649999E-03    9.9999844E-25
  4.9999999E-03    1.0000008E-24
  5.0349999E-03    1.0000029E-24
  5.0700000E-03    1.0000005E-24
  5.1050000E-03    9.9999834E-25
  5.1400000E-03    1.0000003E-24
  5.1750001E-03    1.0000015E-24
  5.2100001E-03    9.9999844E-25
  5.2450001E-03    9.9999874E-25
  5.2800002E-03    1.0000028E-24
  5.3150002E-03    1.0000028E-24
  5.3500002E-03    9.9999972E-25
  5.3849998E-03    9.9999953E-25
  5.4199998E-03    1.0000002E-24
  5.4549999E-03    9.9999933E-25
  5.4899999E-03    9.9999933E-25
  5.5249999E-03    9.9999943E-25
  5.5600000E-03    9.9999953E-25
  5.5950000E-03    1.0000007E-24
  5.6300000E-03    1.0000002E-24
  5.6650001E-03    9.9999893E-25
  5.7000001E-03    1.0000000E-24
  5.7350001E-03    1.0000014E-24
  5.7700002E-03    9.9999953E-25
  5.8050002E-03    9.9999824E-25
  5.8400002E-03    1.0000006E-24
  5.8749998E-03    1.0000021E-24
  5.9099998E-03    1.0000005E-24
  5.9449999E-03    9.9999903E-25
  5.9799999E-03    1.0000000E-24
  6.0149999E-03    1.0000004E-24
  6.0500000E-03    9.9999963E-25
  6.0850000E-03    9.9999982E-25
  6.1200000E-03    1.0000003E-24
  6.1550001E-03    9.9999982E-25
  6.1900001E-03    1.0000000E-24
  6.2250001E-03    1.0000006E-24
  6.2600002E-03    9.9999992E-25
  6.2950002E-03    9.9999992E-25
  6.3299998E-03    1.0000007E-24
  6.3649998E-03    1.0000000E-24
  6.3999998E-03    9.9999913E-25
  6.4349999E-03    1.0000002E-24
  6.4699999E-03    1.0000012E-24
  6.5049999E-03    1.0000002E-24
  6.5400000E-03    9.9999992E-25
  6.5750000E-03    1.0000008E-24
  6.6100000E-03    1.0000010E-24
  6.6450001E-03    1.0000000E-24
  6.6800001E-03    9.9999953E-25
  6.7150001E-03    9.9999963E-25
  6.7500002E-03    1.0000005E-24
  6.7850002E-03    1.0000010E-24
  6.8199998E-03    9.9999923E-25
  6.8549998E-03    9.9999736E-25
  6.8899998E-03    9.9999982E-25
  6.9249999E-03    1.0000026E-24
  6.9599999E-03    1.0000004E-24
  6.9949999E-03    9.9999795E-25
  7.0300000E-03    9.9999972E-25
  7.0650000E-03    1.0000013E-24
  7.1000000E-03    1.0000005E-24
  7.1350001E-03    1.0000001E-24
  7.1700001E-03    1.0000006E-24
  7.2050001E-03    1.0000014E-24
  7.2400002E-03    1.0000018E-24
  7.2750002E-03    1.0000003E-24
  7.3099998E-03    9.9999824E-25
  7.3449998E-03    9.9999854E-25
  7.3799998E-03    1.0000009E-24
  7.4149999E-03    1.0000013E-24
  7.4499999E-03    9.9999992E-25
  7.4850000E-03    9.9999972E-25
  7.5200000E-03    1.0000006E-24
  7.5550000E-03    9.9999982E-25
  7.5900001E-03    9.9999834E-25
  7.6250001E-03    9.9999913E-25
  7.6600001E-03    1.0000008E-24
  7.6950002E-03    1.0000005E-24
  7.7300002E-03    9.9999992E-25
  7.7650002E-03    1.0000010E-24
  7.7999998E-03    1.0000016E-24
  7.8349998E-03    9.9999972E-25
  7.8699999E-03    9.9999864E-25
  7.9049999E-03    9.9999992E-25
  7.9399999E-03    1.0000013E-24
  7.9750000E-03    1.0000010E-24
  8.0100000E-03    1.0000003E-24
  8.0450000E-03    1.0000001E-24
  8.0800001E-03    9.9999943E-25
  8.1150001E-03    9.9999943E-25
  8.1500001E-03    1.0000004E-24
  8.1850002E-03    9.9999963E-25
  8.2200002E-03    9.9999834E-25
  8.2550002E-03    1.0000010E-24
  8.2900003E-03    1.0000021E-24
  8.3250003E-03    9.9999903E-25
  8.3600003E-03    9.9999854E-25
  8.3950004E-03    1.0000018E-24
  8.4300004E-03    1.0000013E-24
  8.4650004E-03    9.9999953E-25
  8.5000005E-03    9.9999992E-25
  8.5349996E-03    1.0000015E-24
  8.5699996E-03    9.9999933E-25
  8.6049996E-03    9.9999913E-25
  8.6399997E-03    1.0000048E-24
  8.6749997E-03    1.0000002E-24
  8.7099997E-03    1.0000031E-24
  8.7449998E-03    9.9999963E-25
  8.7799998E-03    1.0000047E-24
  8.8149998E-03    9.9999686E-25
  8.8499999E-03    9.9999174E-25
  8.8849999E-03    9.9999184E-25
  8.9199999E-03    9.9998414E-25
  8.9550000E-03    1.0000102E-24
  8.9900000E-03    9.9999213E-25
  9.0250000E-03    9.9997635E-25
  9.0600001E-03    1.0000293E-24
  9.0950001E-03    1.0000051E-24
  9.1300001E-03    1.0000027E-24
  9.1650002E-03    1.0000445E-24
  9.2000002E-03    1.0000262E-24
  9.2350002E-03    9.9990565E-25
  9.2700003E-03    9.9980428E-25
  9.3050003E-03    9.9992656E-25
  9.3400003E-03    9.9994805E-25
  9.3750004E-03    9.9984649E-25
  9.4100004E-03    1.0001891E-24
  9.4450004E-03    1.0001374E-24
  9.4799995E-03    9.9999578E-25
  9.5149996E-03    9.9981336E-25
  9.5499996E-03    1.0000180E-24
  9.5849996E-03    1.0006178E-24
  9.6199997E-03    1.0009901E-24
  9.6549997E-03    9.9910959E-25
  9.6899997E-03    1.0000056E-24
  9.7249998E-03    1.0016098E-24
  9.7599998E-03    9.9997685E-25
  9.7949998E-03    9.9918167E-25
  9.8299999E-03    9.9893693E-25
  9.8649999E-03    9.9948509E-25
  9.8999999E-03    9.9761026E-25
  9.9350000E-03    9.9568170E-25
  9.9700000E-03    9.9306347E-25
  1.0005000E-02    1.0024601E-24
  1.0040000E-02    9.9757230E-25
  1.0075000E-02    9.8360236E-25
  1.0110000E-02    9.9206457E-25
  1.0145000E-02    1.0133502E-24
  1.0180000E-02    9.8694260E-25
  1.0215000E-02    9.7485380E-25
  1.0250000E-02    9.9381890E-25
  1.0285000E-02    1.0169119E-24
  1.0320000E-02    9.9598393E-25
  1.0355000E-02    9.9328928E-25
  1.0390000E-02    1.0069871E-24
  1.0425000E-02    9.5470727E-25
  1.0460000E-02    9.7892797E-25
  1.0495000E-02    1.1622672E-24
  1.0530000E-02    1.0617909E-24
  1.0565000E-02    8.5641383E-25
  1.0600000E-02    1.0198966E-24
  1.0635000E-02    1.2389386E-24
  1.0670000E-02    7.1729781E-25
  1.0705000E-02    7.9041605E-25
  1.0740000E-02    1.4041925E-24
  1.0775000E-02    1.1460638E-24
  1.0810000E-02    7.6226727E-25
  1.0845000E-02    2.8567178E-25
  1.0880000E-02    7.9678506E-25
  1.0915000E-02    1.4965116E-24
  1.0950000E-02    1.9969142E-24
  1.0985000E-02    5.8554542E-25
  1.1020000E-02   -2.4509413E-25
  1.1055000E-02    7.6796383E-25
  1.1090000E-02    1.3814902E-24
  1.1125000E-02    9.9948874E-25
  1.1160000E-02   -1.5131572E-25
  1.1195000E-02    7.9849516E-25
  1.1230000E-02    2.6941247E-24
  1.1265000E-02    2.8585771E-24
  1.1300000E-02    2.7907505E-25
  1.1335000E-02    1.0877515E-24
  1.1370000E-02    5.3933434E-24
  1.1405000E-02    2.8885369E-24
  1.1440000E-02   -2.9913302E-24
  1.1475000E-02   -2.5569477E-24
  1.1510000E-02    4.1924735E-24
  1.1545000E-02    1.6798234E-23
  1.1580000E-02   -2.5647122E-24
  1.1615000E-02   -9.9321548E-24
  1.1650000E-02   -6.8426813E-24
  1.1685000E-02    1.1773869E-23
  1.1720000E-02    2.3778707E-23
  1.1755000E-02   -1.2359913E-23
  1.1790000E-02   -2.4414194E-23
  1.1825000E-02   -8.7849578E-24
  1.1860000E-02    1.6730978E-23
  1.1895000E-02   -3.2642392E-23
  1.1930000E-02   -8.2227832E-24
  1.1965000E-02    3.1377189E-23
  1.2000000E-02    2.9038295E-23
  1.2035000E-02   -4.5091993E-23
  1.2070000E-02   -2.2720497E-23
  1.2105000E-02    1.0488261E-22
  1.2140000E-02    5.0828631E-23
  1.2175000E-02   -5.9127782E-23
  1.2210000E-02    9.0383278E-23
  1.2245000E-02   -7.2513596E-23
  1.2280000E-02   -7.2288493E-23
  1.2315000E-02    4.3072992E-23
  1.2350000E-02    7.2817762E-23
  1.2385000E-02   -2.5509884E-22
  1.2420000E-02   -1.3005950E-22
  1.2455000E-02   -2.7712658E-23
  1.2490000E-02    1.6399306E-22
  1.2525000E-02   -3.5547067E-22
  1.2560000E-02   -6.9327444E-22
  1.2595000E-02   -4.1113865E-22
  1.2630000E-02    5.8976519E-22
  1.2665000E-02    7.1976780E-22
  1.2700000E-02   -1.5274468E-21
  1.2735000E-02   -1.7111154E-21
  1.2770000E-02    1.3065120E-21
  1.2805000E-02    2.7457287E-21
  1.2840000E-02   -1.1929448E-21
  1.2875000E-02   -3.2051744E-21
  1.2910000E-02    7.4172140E-22
  1.2945000E-02    3.8981149E-21
  1.2980000E-02   -1.1107792E-21
  1.3015000E-02   -3.4291483E-21
  1.3050000E-02    9.4333618E-22
  1.3085000E-02    2.1835866E-21
  1.3120000E-02    2.3724497E-21
  1.3155000E-02   -1.0334271E-21
  1.3190000E-02   -5.0583181E-21
  1.3225000E-02   -1.6350266E-21
  1.3260000E-02    2.8712368E-21
  1.3295000E-02    3.0846441E-21
  1.3330000E-02   -1.0651966E-21
  1.3365000E-02   -8.5151620E-21
  1.3400000E-02    6.0242700E-21
  1.3435000E-02    1.5403079E-20
  1.3470000E-02   -6.7505976E-21
  1.3505000E-02   -1.9136390E-20
  1.3540000E-02    5.3180581E-21
  1.3575000E-02    2.5506518E-20
  1.3610000E-02   -2.7723342E-21
  1.3645000E-02   -2.6021496E-20
  1.3680000E-02   -1.1651190E-20
  1.3715000E-02    1.4390078E-20
  1.3750000E-02    4.5396835E-21
  1.3785000E-02   -2.7820562E-20
  1.3820000E-02   -2.0336234E-20
  1.3855000E-02    2.3730508E-20
  1.3890000E-02    9.5782933E-20
  1.3925000E-02    9.7654811E-21
  1.3960000E-02   -4.5962850E-20
  1.3995000E-02    3.1425680E-20
  1.4030000E-02    1.1097111E-19
  1.4065000E-02    4.2076203E-20
  1.4100000E-02   -1.0579410E-19
  1.4135000E-02   -1.3058583E-19
  1.4170000E-02    9.0178448E-20
  1.4205000E-02    1.9776703E-19
  1.4240000E-02    9.3117983E-21
  1.4275000E-02   -1.4032868E-19
  1.4310000E-02    1.4943011E-19
  1.4345000E-02    2.8634292E-19
  1.4380000E-02   -3.6965580E-20
  1.4415000E-02   -2.2644255E-19
  1.4450000E-02    1.5151438E-19
  1.4485000E-02    2.2638641E-19
  1.4520000E-02   -4.5274044E-20
  1.4555000E-02    1.3201534E-20
  1.4590000E-02   -6.4340628E-20
  1.4625000E-02   -2.2144946E-19
  1.4660000E-02   -3.3562305E-19
  1.4695000E-02   -8.5964390E-20
  1.4730000E-02    2.0080021E-20
  1.4765000E-02   -1.4837962E-19
  1.4800000E-02   -7.4319619E-20
  1.4835000E-02   -1.9495590E-19
  1.4870000E-02   -9.1299688E-19
  1.4905000E-02    1.3258209E-19
  1.4940000E-02    1.0492773E-18
  1.4975000E-02   -3.7432466E-20
  1.5010000E-02   -1.6595548E-18
  1.5045000E-02   -6.4575774E-20
  1.5080000E-02    2.0373210E-18
  1.5115000E-02    1.1745497E-18
  1.5150000E-02   -2.5834033E-18
  1.5185000E-02   -2.0561938E-18
  1.5220000E-02    2.9547735E-18
  1.5255000E-02    3.7326260E-18
  1.5290000E-02   -3.6565064E-18
  1.5325000E-02   -6.7678764E-18
  1.5360000E-02    2.0351003E-18
  1.5395000E-02    9.2340207E-18
  1.5430000E-02   -6.9630313E-20
  1.5465000E-02   -1.0249674E-17
  1.5500000E-02   -4.8732395E-18
  1.5535000E-02    9.9867385E-18
  1.5570000E-02    9.8913298E-18
  1.5605000E-02   -9.3838239E-18
  1.5640000E-02   -1.4995704E-17
  1.5675001E-02    8.6841193E-18
  1.5710000E-02    2.9058210E-17
  1.5745001E-02    1.8466276E-18
  1.5780000E-02   -3.5263159E-17
  1.5814999E-02   -1.4950438E-17
  1.5850000E-02    4.3122133E-17
  1.5884999E-02    4.0615339E-17
  1.5920000E-02   -3.5069927E-17
  1.5954999E-02   -5.6106960E-17
  1.5990000E-02    3.4012452E-17
  1.6024999E-02    8.8964367E-17
  1.6060000E-02   -4.8345340E-18
  1.6094999E-02   -1.0827241E-16
  1.6130000E-02   -3.5149478E-17
  1.6164999E-02    1.2766142E-16
  1.6200000E-02    1.0250227E-16
  1.6235000E-02   -1.1481990E-16
  1.6270000E-02   -1.5335318E-16
  1.6305000E-02    7.8832258E-17
  1.6340001E-02    2.1480724E-16
  1.6375000E-02   -1.0898435E-17
  1.6410001E-02   -2.7971950E-16
  1.6445000E-02   -9.4604104E-17
  1.6480001E-02    3.2920047E-16
  1.6515000E-02    2.7191621E-16
  1.6550001E-02   -2.9151883E-16
  1.6585000E-02   -4.2759282E-16
  1.6620001E-02    2.0861769E-16
  1.6655000E-02    6.1395685E-16
  1.6690001E-02   -5.1545706E-18
  1.6725000E-02   -7.3902703E-16
  1.6759999E-02   -2.6746145E-16
  1.6795000E-02    8.0077346E-16
  1.6829999E-02    6.5106812E-16
  1.6865000E-02   -6.8897660E-16
  1.6899999E-02   -1.0567492E-15
  1.6935000E-02    4.2531142E-16
  1.6969999E-02    1.4175385E-15
  1.7005000E-02    6.6466063E-18
  1.7039999E-02   -1.7261827E-15
  1.7075000E-02   -6.9260809E-16
  1.7109999E-02    1.7707860E-15
  1.7145000E-02    1.4583223E-15
  1.7180000E-02   -1.5523586E-15
  1.7215000E-02   -2.3119163E-15
  1.7250000E-02    9.4546876E-16
  1.7285001E-02    3.1440370E-15
  1.7320000E-02    1.5131352E-16
  1.7355001E-02   -3.6632527E-15
  1.7390000E-02   -1.5944663E-15
  1.7425001E-02    3.6767989E-15
  1.7460000E-02    3.2675367E-15
  1.7495001E-02   -3.0701444E-15
  1.7530000E-02   -4.9842464E-15
  1.7565001E-02    1.6855783E-15
  1.7600000E-02    6.4877519E-15
  1.7635001E-02    5.4994699E-16
  1.7670000E-02   -7.3655342E-15
  1.7704999E-02   -3.5852440E-15
  1.7740000E-02    7.0411100E-15
  1.7774999E-02    6.8390067E-15
  1.7810000E-02   -5.5075505E-15
  1.7844999E-02   -9.9719783E-15
  1.7880000E-02    2.5192983E-15
  1.7914999E-02    1.2525019E-14
  1.7950000E-02    1.9665719E-15
  1.7984999E-02   -1.3579180E-14
  1.8020000E-02   -7.5330028E-15
  1.8054999E-02    1.2459853E-14
  1.8090000E-02    1.3382462E-14
  1.8124999E-02   -8.9184811E-15
  1.8160000E-02   -1.8669624E-14
  1.8195000E-02    2.8091589E-15
  1.8230001E-02    2.2202545E-14
  1.8265000E-02    5.4069429E-15
  1.8300001E-02   -2.2939470E-14
  1.8335000E-02   -1.4974470E-14
  1.8370001E-02    2.0028567E-14
  1.8405000E-02    2.4765344E-14
  1.8440001E-02   -1.2567248E-14
  1.8475000E-02   -3.2441904E-14
  1.8510001E-02    1.3946049E-15
  1.8545000E-02    3.6689435E-14
  1.8580001E-02    1.2794610E-14
  1.8615000E-02   -3.5805096E-14
  1.8650001E-02   -2.8346864E-14
  1.8685000E-02    2.8496425E-14
  1.8719999E-02    4.2660445E-14
  1.8755000E-02   -1.4526774E-14
  1.8789999E-02   -5.2896286E-14
  1.8825000E-02   -5.1417289E-15
  1.8859999E-02    5.6124718E-14
  1.8895000E-02    2.8060751E-14
  1.8929999E-02   -5.0457810E-14
  1.8965000E-02   -5.0989205E-14
  1.8999999E-02    3.5039229E-14
  1.9035000E-02    7.0124475E-14
  1.9069999E-02   -1.0143840E-14
  1.9105000E-02   -8.0895170E-14
  1.9140000E-02   -2.1688055E-14
  1.9175000E-02    7.9582588E-14
  1.9210000E-02    5.6064047E-14
  1.9245001E-02   -6.4090565E-14
  1.9280000E-02   -8.7585077E-14
  1.9315001E-02    3.4057657E-14
  1.9350000E-02    1.0995952E-13
  1.9385001E-02    8.3273046E-15
  1.9420000E-02   -1.1704803E-13
  1.9455001E-02   -5.8006110E-14
  1.9490000E-02    1.0433231E-13
  1.9525001E-02    1.0766386E-13
  1.9560000E-02   -6.9634646E-14
  1.9595001E-02   -1.4818877E-13
  1.9630000E-02    1.4515039E-14
  1.9664999E-02    1.7045695E-13
  1.9700000E-02    5.6066598E-14
  1.9734999E-02   -1.6590406E-13
  1.9770000E-02   -1.3263150E-13
  1.9804999E-02    1.2940702E-13
  1.9840000E-02    2.0343224E-13
  1.9874999E-02   -5.9032247E-14
  1.9910000E-02   -2.5354702E-13
  1.9944999E-02   -4.0472830E-14
  1.9980000E-02    2.6909524E-13
  2.0014999E-02    1.5899584E-13
  2.0050000E-02   -2.3813669E-13
  2.0085000E-02   -2.8031370E-13
  2.0120000E-02    1.5379539E-13
  2.0155000E-02    3.8370389E-13
  2.0190001E-02   -1.6085943E-14
  2.0225000E-02   -4.4539654E-13
  2.0260001E-02   -1.6520845E-13
  2.0295000E-02    4.4279999E-13
  2.0330001E-02    3.7066959E-13
  2.0365000E-02   -3.5750908E-13
  2.0400001E-02   -5.7058254E-13
  2.0435000E-02    1.8091884E-13
  2.0470001E-02    7.2845278E-13
  2.0505000E-02    8.3167102E-14
  2.0540001E-02   -8.0366063E-13
  2.0575000E-02   -4.1380820E-13
  2.0609999E-02    7.5855766E-13
  2.0645000E-02    7.7271734E-13
  2.0679999E-02   -5.6521769E-13
  2.0715000E-02   -1.1051580E-12
  2.0749999E-02    2.1351218E-13
  2.0785000E-02    1.3448102E-12
  2.0819999E-02    2.8168375E-13
  2.0855000E-02   -1.4223023E-12
  2.0889999E-02   -8.7611212E-13
  2.0925000E-02    1.2763563E-12
  2.0959999E-02    1.4953513E-12
  2.0995000E-02   -8.6680663E-13
  2.1029999E-02   -2.0387082E-12
  2.1065000E-02    1.8858218E-13
  2.1100000E-02    2.3907538E-12
  2.1135001E-02    7.1859874E-13
  2.1170000E-02   -2.4362290E-12
  2.1205001E-02   -1.7632792E-12
  2.1240000E-02    2.0823059E-12
  2.1275001E-02    2.8059916E-12
  2.1310000E-02   -1.2795562E-12
  2.1345001E-02   -3.6695824E-12
  2.1380000E-02    4.3737170E-14
  2.1415001E-02    4.1616779E-12
  2.1450000E-02    1.5308522E-12
  2.1485001E-02   -4.1038939E-12
  2.1520000E-02   -3.2669338E-12
  2.1555001E-02    3.3682245E-12
  2.1590000E-02    4.9156425E-12
  2.1624999E-02   -1.9104985E-12
  2.1660000E-02   -6.1811146E-12
  2.1694999E-02   -1.9974239E-13
  2.1730000E-02    6.7615904E-12
  2.1764999E-02    2.7639854E-12
  2.1800000E-02   -6.4014289E-12
  2.1834999E-02   -5.4589133E-12
  2.1870000E-02    4.9476269E-12
  2.1904999E-02    7.8650021E-12
  2.1940000E-02   -2.4003792E-12
  2.1974999E-02   -9.5189594E-12
  2.2010000E-02   -1.0526920E-12
  2.2045000E-02    9.9864778E-12
  2.2080000E-02    5.0284854E-12
  2.2115000E-02   -8.9461979E-12
  2.2150001E-02   -8.9748755E-12
  2.2185000E-02    6.2728052E-12
  2.2220001E-02    1.2237359E-11
  2.2255000E-02   -2.0977452E-12
  2.2290001E-02   -1.4155671E-11
  2.2325000E-02   -3.1621873E-12
  2.2360001E-02    1.4186846E-11
  2.2395000E-02    8.8324755E-12
  2.2430001E-02   -1.2021456E-11
  2.2465000E-02   -1.4055458E-11
  2.2500001E-02    7.6838700E-12
  2.2535000E-02    1.7921093E-11
  2.2569999E-02   -1.5786258E-12
  2.2605000E-02   -1.9625858E-11
  2.2639999E-02   -5.5285490E-12
  2.2675000E-02    1.8635902E-11
  2.2709999E-02    1.2604251E-11
  2.2745000E-02   -1.4819142E-11
  2.2779999E-02   -1.8506210E-11
  2.2815000E-02    8.5147601E-12
  2.2849999E-02    2.2183378E-11
  2.2885000E-02   -5.1461277E-13
  2.2919999E-02   -2.2876319E-11
  2.2955000E-02   -8.0450837E-12
  2.2990000E-02    2.0278806E-11
  2.3025000E-02    1.5872293E-11
  2.3060000E-02   -1.4616862E-11
  2.3095001E-02   -2.1747276E-11
  2.3130000E-02    6.6276225E-12
  2.3165001E-02    2.4748212E-11
  2.3200000E-02    2.5682915E-12
  2.3235001E-02   -2.4418984E-11
  2.3270000E-02   -1.1671501E-11
  2.3305001E-02    2.0843710E-11
  2.3340000E-02    1.9444595E-11
  2.3375001E-02   -1.4605860E-11
  2.3410000E-02   -2.4928842E-11
  2.3445001E-02    6.6467331E-12
  2.3480000E-02    2.7589125E-11
  2.3514999E-02    1.9433695E-12
  2.3550000E-02   -2.7348743E-11
  2.3584999E-02   -1.0138708E-11
  2.3620000E-02    2.4517355E-11
  2.3654999E-02    1.7142064E-11
  2.3690000E-02   -1.9638428E-11
  2.3724999E-02   -2.2452111E-11
  2.3760000E-02    1.3317766E-11
  2.3794999E-02    2.5831880E-11
  2.3830000E-02   -6.0845270E-12
  2.3864999E-02   -2.7190345E-11
  2.3900000E-02   -1.6500763E-12
  2.3934999E-02    2.6451268E-11
  2.3970000E-02    9.5369667E-12
  2.4005000E-02   -2.3466997E-11
  2.4040001E-02   -1.7157142E-11
  2.4075000E-02    1.8039329E-11
  2.4110001E-02    2.3888827E-11
  2.4145000E-02   -1.0051602E-11
  2.4180001E-02   -2.8844753E-11
  2.4215000E-02   -3.1648176E-13
  2.4250001E-02    3.0952036E-11
  2.4285000E-02    1.2380934E-11
  2.4320001E-02   -2.9189567E-11
  2.4355000E-02   -2.4858070E-11
  2.4390001E-02    2.2928081E-11
  2.4425000E-02    3.5966539E-11
  2.4460001E-02   -1.2254416E-11
  2.4495000E-02   -4.3721186E-11
  2.4529999E-02   -1.8246429E-12
  2.4565000E-02    4.6379383E-11
  2.4599999E-02    1.7403683E-11
  2.4635000E-02   -4.2918797E-11
  2.4669999E-02   -3.1958641E-11
  2.4705000E-02    3.3413276E-11
  2.4739999E-02    4.2869659E-11
  2.4775000E-02   -1.9132468E-11
  2.4809999E-02   -4.8003056E-11
  2.4845000E-02    2.3349944E-12
  2.4879999E-02    4.6195239E-11
  2.4915000E-02    1.4172238E-11
  2.4950000E-02   -3.7503362E-11
  2.4985000E-02   -2.7571832E-11
  2.5020000E-02    2.3239730E-11
  2.5055001E-02    3.5647561E-11
  2.5090000E-02   -5.6899169E-12
  2.5125001E-02   -3.7241193E-11
  2.5160000E-02   -1.2453091E-11
  2.5195001E-02    3.2309634E-11
  2.5230000E-02    2.8518124E-11
  2.5265001E-02   -2.1941681E-11
  2.5300000E-02   -4.0341716E-11
  2.5335001E-02    8.0855852E-12
  2.5370000E-02    4.6677561E-11
  2.5405001E-02    6.8683301E-12
  2.5440000E-02   -4.7311537E-11
  2.5474999E-02   -2.0577229E-11
  2.5510000E-02    4.2853915E-11
  2.5544999E-02    3.1116939E-11
  2.5580000E-02   -3.4634188E-11
  2.5614999E-02   -3.7091014E-11
  2.5650000E-02    2.4580782E-11
  2.5684999E-02    3.8051475E-11
  2.5720000E-02   -1.4551146E-11
  2.5754999E-02   -3.4374711E-11
  2.5790000E-02    6.1831317E-12
  2.5824999E-02    2.6919496E-11
  2.5860000E-02   -2.9562775E-13
  2.5895000E-02   -1.6823898E-11
  2.5930000E-02   -1.9782817E-12
  2.5965000E-02    5.1169568E-12
  2.6000001E-02    2.8932412E-13
  2.6035000E-02    6.3207113E-12
  2.6070001E-02    4.6185534E-12
  2.6105000E-02   -1.6635819E-11
  2.6140001E-02   -1.2065591E-11
  2.6175000E-02    2.4455550E-11
  2.6210001E-02    2.1367207E-11
  2.6245000E-02   -2.8229372E-11
  2.6280001E-02   -2.9192870E-11
  2.6315000E-02    2.9873697E-11
  2.6350001E-02    3.5465828E-11
  2.6385000E-02   -2.9409194E-11
  2.6419999E-02   -3.8574234E-11
  2.6455000E-02    2.8220660E-11
  2.6489999E-02    3.7394449E-11
  2.6525000E-02   -2.7785482E-11
  2.6559999E-02   -3.1228745E-11
  2.6595000E-02    3.2643381E-11
  2.6629999E-02    2.4595794E-11
  2.6665000E-02   -4.1256658E-11
  2.6699999E-02   -2.0765601E-11
  2.6735000E-02    5.2070133E-11
  2.6769999E-02    1.8111500E-11
  2.6805000E-02   -6.4655808E-11
  2.6839999E-02   -1.9917195E-11
  2.6875000E-02    7.4134567E-11
  2.6910000E-02    2.7020346E-11
  2.6945001E-02   -7.7776979E-11
  2.6980000E-02   -3.5373291E-11