 -4.8000002E-03    1.0000000E-24
 -4.7650002E-03    1.0000002E-24
 -4.7300002E-03    1.0000001E-24
 -4.6950001E-03    1.0000000E-24
 -4.6600001E-03    1.0000003E-24
 -4.6250001E-03    1.0000002E-24
 -4.5900000E-03    9.9999992E-25
 -4.5550000E-03    1.0000003E-24
 -4.5200000E-03    1.0000002E-24
 -4.4849999E-03    9.9999963E-25
 -4.4499999E-03    1.0000001E-24
 -4.4149999E-03    1.0000007E-24
 -4.3799998E-03    1.0000003E-24
 -4.3449998E-03    1.0000000E-24
 -4.3100002E-03    1.0000001E-24
 -4.2750002E-03    1.0000000E-24
 -4.2400002E-03    9.9999992E-25
 -4.2050001E-03    1.0000001E-24
 -4.1700001E-03    1.0000001E-24
 -4.1350001E-03    1.0000004E-24
 -4.1000000E-03    1.0000006E-24
 -4.0650000E-03    1.0000001E-24
 -4.0300000E-03    9.9999953E-25
 -3.9949999E-03    9.9999982E-25
 -3.9599999E-03    1.0000001E-24
 -3.9249999E-03    1.0000000E-24
 -3.8900001E-03    1.0000000E-24
 -3.8550000E-03    1.0000001E-24
 -3.8200000E-03    1.0000004E-24
 -3.7849999E-03    1.0000006E-24
 -3.7499999E-03    1.0000001E-24
 -3.7150001E-03    9.9999972E-25
 -3.6800001E-03    9.9999982E-25
 -3.6450000E-03    1.0000006E-24
 -3.6100000E-03    1.0000004E-24
 -3.5750000E-03    9.9999982E-25
 -3.5399999E-03    1.0000000E-24
 -3.5049999E-03    1.0000000E-24
 -3.4700001E-03    9.9999972E-25
 -3.4350001E-03    9.9999992E-25
 -3.4000000E-03    1.0000002E-24
 -3.3650000E-03    1.0000000E-24
 -3.3300000E-03    1.0000003E-24
 -3.2949999E-03    1.0000008E-24
 -3.2599999E-03    1.0000002E-24
 -3.2250001E-03    9.9999972E-25
 -3.1900001E-03    1.0000002E-24
 -3.1550000E-03    1.0000000E-24
 -3.1200000E-03    9.9999972E-25
 -3.0850000E-03    1.0000006E-24
 -3.0499999E-03    1.0000009E-24
 -3.0149999E-03    9.9999963E-25
 -2.9800001E-03    9.9999953E-25
 -2.9450001E-03    1.0000007E-24
 -2.9100000E-03    1.0000010E-24
 -2.8750000E-03    1.0000001E-24
 -2.8400000E-03    9.9999815E-25
 -2.8049999E-03    1.0000018E-24
 -2.7699999E-03    1.0000005E-24
 -2.7350001E-03    9.9998907E-25
 -2.7000001E-03    9.9999440E-25
 -2.6650000E-03    1.0000659E-24
 -2.6300000E-03    1.0000174E-24
 -2.5950000E-03    9.9986867E-25
 -2.5599999E-03    1.0000395E-24
 -2.5249999E-03    1.0006842E-24
 -2.4900001E-03    9.9992439E-25
 -2.4550001E-03    9.9874622E-25
 -2.4200000E-03    1.0009920E-24
 -2.3850000E-03    1.0029154E-24
 -2.3500000E-03    9.9878429E-25
 -2.3149999E-03    9.9571473E-25
 -2.2799999E-03    1.0090875E-24
 -2.2450001E-03    1.0073684E-24
 -2.2100001E-03    9.5170931E-25
 -2.1750000E-03    1.0116829E-24
 -2.1400000E-03    1.1463917E-24
 -2.1050000E-03    9.5339629E-25
 -2.0699999E-03    7.9373636E-25
 -2.0349999E-03    1.1236037E-24
 -2.0000001E-03    1.3024423E-24
 -1.9650001E-03    5.6228935E-25
 -1.9300000E-03    1.0672610E-24
 -1.8950000E-03    1.6737475E-24
 -1.8600000E-03   -5.1928243E-25
 -1.8250000E-03    8.2252752E-26
 -1.7900000E-03    6.3826834E-24
 -1.7550000E-03    1.9921290E-24
 -1.7199999E-03   -1.0093200E-23
 -1.6850000E-03    5.6342726E-24
 -1.6500000E-03    1.4131538E-23
 -1.6150000E-03   -6.1016348E-24
 -1.5800000E-03   -1.1864582E-23
 -1.5450000E-03    1.8447039E-23
 -1.5100000E-03   -1.2000680E-23
 -1.4750001E-03   -1.5168169E-23
 -1.4400000E-03    5.5935104E-23
 -1.4050000E-03   -6.3373535E-24
 -1.3700000E-03   -8.7438864E-23
 -1.3350000E-03    3.1301480E-23
 -1.3000000E-03    2.3479366E-22
 -1.2650000E-03   -6.0159385E-23
 -1.2300001E-03   -1.9226555E-22
 -1.1950000E-03    4.3557365E-22
 -1.1600000E-03    8.7254882E-23
 -1.1250000E-03   -9.0715369E-22
 -1.0900000E-03    2.6575696E-22
 -1.0550000E-03    1.6419666E-21
 -1.0200000E-03   -1.1206781E-21
 -9.8500005E-04   -2.0365039E-21
 -9.5000002E-04    2.3315410E-21
 -9.1499998E-04    1.3552679E-21
 -8.8000001E-04   -2.8991461E-21
 -8.4499997E-04    1.3318898E-21
 -8.1000000E-04    4.8829526E-21
 -7.7500002E-04   -3.7523429E-21
 -7.3999999E-04   -2.9280263E-21
 -7.0500001E-04    6.0899266E-21
 -6.6999998E-04   -2.0713162E-21
 -6.3500000E-04   -1.3999037E-20
 -6.0000003E-04    1.0024822E-20
 -5.6499999E-04    2.0965628E-20
 -5.3000002E-04    7.1301515E-21
 -4.9499999E-04   -2.0897615E-20
 -4.6000001E-04    3.0272890E-21
 -4.2500001E-04    5.3104491E-20
 -3.9000000E-04   -1.2992448E-20
 -3.5500000E-04   -7.7504949E-20
 -3.1999999E-04    4.2431415E-20
 -2.8499999E-04    1.5201236E-19
 -2.5000001E-04   -1.1194741E-19
 -2.1499999E-04   -2.5349609E-19
 -1.8000000E-04    1.8858975E-19
 -1.4500000E-04    2.0130203E-19
 -1.1000000E-04   -3.9699908E-19
 -7.5000004E-05   -1.0703139E-19
 -3.9999999E-05    5.0470198E-19
 -4.9999999E-06   -3.0009019E-19
  2.9999999E-05   -7.7571592E-19
  6.5000000E-05    7.9379136E-19
  9.9999997E-05    7.9232131E-19
  1.3499999E-04   -1.6472245E-18
  1.7000000E-04   -3.1628902E-19
  2.0500000E-04    2.9524043E-18
  2.3999999E-04    7.9622384E-19
  2.7500000E-04   -3.7828318E-18
  3.1000000E-04   -8.3478090E-19
  3.4500001E-04    4.1899159E-18
  3.8000001E-04   -3.1074821E-19
  4.1499999E-04   -5.7465193E-18
  4.4999999E-04    6.3212496E-19
  4.8500000E-04    7.0151782E-18
  5.2000000E-04   -4.5686374E-20
  5.5499998E-04   -9.8998680E-18
  5.9000001E-04    1.8787764E-18
  6.2499999E-04    1.0557721E-17
  6.6000002E-04   -5.2379012E-18
  6.9500000E-04   -7.5176010E-18
  7.3000003E-04    3.6776065E-18
  7.6500000E-04    2.5651830E-18
  7.9999998E-04   -2.3155869E-18
  8.3500001E-04    1.1454476E-17
  8.6999999E-04    8.9948563E-18
  9.0500002E-04   -1.5345064E-17
  9.4000000E-04   -2.0378170E-17
  9.7499997E-04    3.0445388E-17
  1.0100000E-03    4.1394308E-17
  1.0450000E-03   -4.1646880E-17
  1.0800000E-03   -6.2555024E-17
  1.1150000E-03    6.7311882E-17
  1.1500000E-03    1.0862667E-16
  1.1849999E-03   -8.8000529E-17
  1.2200000E-03   -1.8118131E-16
  1.2550000E-03    1.0179430E-16
  1.2900000E-03    2.7729042E-16
  1.3250000E-03   -7.1177045E-17
  1.3600000E-03   -3.7118845E-16
  1.3950000E-03   -3.8011358E-17
  1.4299999E-03    4.5041861E-16
  1.4650000E-03    1.3203436E-16
  1.5000000E-03   -5.2405870E-16
  1.5350000E-03   -3.2048209E-16
  1.5700000E-03    4.6403980E-16
  1.6050000E-03    5.3280665E-16
  1.6400000E-03   -2.9240120E-16
  1.6749999E-03   -7.6877727E-16
  1.7100000E-03   -2.0016556E-16
  1.7450000E-03    8.6945110E-16
  1.7800000E-03    8.8388724E-16
  1.8150000E-03   -8.6375454E-16
  1.8500000E-03   -1.8503075E-15
  1.8850000E-03    3.8583997E-16
  1.9200000E-03    2.7525301E-15
  1.9550000E-03    3.9325651E-16
  1.9900000E-03   -3.6521753E-15
  2.0250001E-03   -1.6732618E-15
  2.0600001E-03    4.4472897E-15
  2.0949999E-03    3.5874302E-15
  2.1299999E-03   -4.3928907E-15
  2.1650000E-03   -5.6986708E-15
  2.2000000E-03    3.6997006E-15
  2.2350000E-03    7.6300076E-15
  2.2700001E-03   -2.1802118E-15
  2.3050001E-03   -9.0614297E-15
  2.3399999E-03   -4.0302873E-16
  2.3749999E-03    9.1552742E-15
  2.4100000E-03    3.2959111E-15
  2.4450000E-03   -8.3158561E-15
  2.4800000E-03   -6.7698414E-15
  2.5150001E-03    5.2681824E-15
  2.5500001E-03    9.9545201E-15
  2.5849999E-03   -3.7362507E-16
  2.6199999E-03   -1.2923479E-14
  2.6550000E-03   -7.1613112E-15
  2.6900000E-03    1.4823065E-14
  2.7250000E-03    1.6973185E-14
  2.7600001E-03   -1.5451365E-14
  2.7950001E-03   -2.9235891E-14
  2.8299999E-03    1.4296817E-14
  2.8649999E-03    4.4132351E-14
  2.9000000E-03   -1.0730285E-14
  2.9350000E-03   -6.1873351E-14
  2.9700000E-03    3.6832804E-15
  3.0050001E-03    8.2350034E-14
  3.0400001E-03    8.2828184E-15
  3.0749999E-03   -1.0420048E-13
  3.1099999E-03   -2.6729715E-14
  3.1450000E-03    1.2428097E-13
  3.1800000E-03    5.1681688E-14
  3.2150000E-03   -1.3904400E-13
  3.2500001E-03   -8.3160705E-14
  3.2850001E-03    1.4187975E-13
  3.3199999E-03    1.1694969E-13
  3.3549999E-03   -1.2649917E-13
  3.3900000E-03   -1.4571120E-13
  3.4250000E-03    8.5938438E-14
  3.4600000E-03    1.5415520E-13
  3.4950001E-03   -2.0154626E-14
  3.5300001E-03   -1.2408491E-13
  3.5649999E-03   -6.3368364E-14
  3.5999999E-03    3.7405287E-14
  3.6350000E-03    1.4783755E-13
  3.6700000E-03    1.1927528E-13
  3.7050000E-03   -2.0727306E-13
  3.7400001E-03   -3.5086341E-13
  3.7750001E-03    2.0887723E-13
  3.8099999E-03    6.4618585E-13
  3.8449999E-03   -1.1935196E-13
  3.8800000E-03   -9.7345938E-13
  3.9149998E-03   -8.3097767E-14
  3.9499998E-03    1.2839357E-12
  3.9849998E-03    3.9408553E-13
  4.0199999E-03   -1.5247196E-12
  4.0549999E-03   -7.9041136E-13
  4.0899999E-03    1.6511009E-12
  4.1250000E-03    1.2320580E-12
  4.1600000E-03   -1.6179720E-12
  4.1950000E-03   -1.6547255E-12
  4.2300001E-03    1.3812783E-12
  4.2650001E-03    1.9548011E-12
  4.3000001E-03   -9.5024412E-13
  4.3350002E-03   -2.0290453E-12
  4.3700002E-03    3.5740887E-13
  4.4049998E-03    1.8094357E-12
  4.4399998E-03    3.3791080E-13
  4.4749998E-03   -1.2325595E-12
  4.5099999E-03   -1.0785194E-12
  4.5449999E-03    1.7990733E-13
  4.5799999E-03    1.6745945E-12
  4.6150000E-03    1.4508168E-12
  4.6500000E-03   -1.7925227E-12
  4.6850001E-03   -3.5205437E-12
  4.7200001E-03    1.1727643E-12
  4.7550001E-03    5.7189197E-12
  4.7900002E-03    2.4894198E-13
  4.8250002E-03   -7.7034186E-12
  4.8600002E-03   -2.5091457E-12
  4.8949998E-03    8.8268524E-12
  4.9299998E-03    5.4750002E-12
  4.9649999E-03   -8.4991450E-12
  4.9999999E-03   -8.5183006E-12
  5.0349999E-03    6.2159891E-12
  5.0700000E-03    1.0475651E-11
  5.1050000E-03   -2.6858856E-12
  5.1400000E-03   -1.1302987E-11
  5.1750001E-03   -1.9863915E-12
  5.2100001E-03    1.0238958E-11
  5.2450001E-03    7.2315552E-12
  5.2800002E-03   -6.0250676E-12
  5.3150002E-03   -1.1495463E-11
  5.3500002E-03   -4.3006530E-13
  5.3849998E-03    1.4252364E-11
  5.4199998E-03    8.3615007E-12
  5.4549999E-03   -1.4731643E-11
  5.4899999E-03   -1.5915829E-11
  5.5249999E-03    1.4434228E-11
  5.5600000E-03    2.1669996E-11
  5.5950000E-03   -1.0263635E-11
  5.6300000E-03   -2.6349003E-11
  5.6650001E-03    3.8521868E-12
  5.7000001E-03    2.5239413E-11
  5.7350001E-03    1.8274208E-12
  5.7700002E-03   -2.2083984E-11
  5.8050002E-03   -3.4372097E-12
  5.8400002E-03    2.0975777E-11
  5.8749998E-03    9.8002726E-12
  5.9099998E-03   -1.2923761E-11
  5.9449999E-03   -1.0662421E-11
  5.9799999E-03    1.3496563E-12
  6.0149999E-03   -6.8876285E-12
  6.0500000E-03    1.0444454E-11
  6.0850000E-03    2.5732635E-11
  6.1200000E-03   -1.8967517E-11
  6.1550001E-03   -4.0163550E-11
  6.1900001E-03    3.7056823E-11
  6.2250001E-03    6.6724959E-11
  6.2600002E-03   -3.9425657E-11
  6.2950002E-03   -7.0637184E-11
  6.3299998E-03    2.2235888E-11
  6.3649998E-03    7.6622694E-11
  6.3999998E-03   -2.2921833E-11
  6.4349999E-03   -6.8485835E-11
  6.4699999E-03    6.4882676E-11
  6.5049999E-03    9.6526426E-11
  6.5400000E-03   -8.3407233E-11
  6.5750000E-03   -1.2141238E-10
  6.6100000E-03    4.7787625E-11
  6.6450001E-03    7.0947720E-11
  6.6800001E-03   -6.4317475E-11
  6.7150001E-03   -2.6123111E-11
  6.7500002E-03    9.8321212E-11
  6.7850002E-03    6.8386900E-11
  6.8199998E-03   -4.8735904E-11
  6.8549998E-03   -7.0816304E-11
  6.8899998E-03   -1.6252192E-11
  6.9249999E-03   -1.5970487E-11
  6.9599999E-03   -6.3382570E-11
  6.9949999E-03   -2.0143045E-11
  7.0300000E-03    9.4589094E-11
  7.0650000E-03    5.6112445E-11
  7.1000000E-03   -1.5133932E-10
  7.1350001E-03   -1.1610926E-10
  7.1700001E-03    1.3688001E-10
  7.2050001E-03    6.8523624E-11
  7.2400002E-03   -3.4581735E-10
  7.2750002E-03   -7.1875721E-11
  7.3099998E-03    5.5235966E-10
  7.3449998E-03    2.2484717E-10
  7.3799998E-03   -4.3454318E-10
  7.4149999E-03   -5.9390923E-11
  7.4499999E-03    4.1387763E-10
  7.4850000E-03   -1.7193612E-10
  7.5200000E-03   -5.9121880E-10
  7.5550000E-03    2.0711456E-10
  7.5900001E-03    5.2509141E-10
  7.6250001E-03   -2.7929190E-10
  7.6600001E-03   -4.9613702E-10
  7.6950002E-03    6.2777628E-10
  7.7300002E-03    6.5979922E-10
  7.7650002E-03   -1.0064936E-09
  7.7999998E-03   -9.0743046E-10
  7.8349998E-03    7.4790540E-10
  7.8699999E-03    9.6010122E-10
  7.9049999E-03   -2.6471214E-10
  7.9399999E-03   -4.4373819E-10
  7.9750000E-03    3.7167439E-10
  8.0100000E-03    1.6526640E-10
  8.0450000E-03   -7.8346696E-10
  8.0800001E-03   -2.8754707E-10
  8.1150001E-03    9.7872088E-10
  8.1500001E-03    8.5213747E-10
  8.1850002E-03   -6.6027139E-10
  8.2200002E-03   -1.3108575E-09
  8.2550002E-03   -5.0589616E-11
  8.2900003E-03    7.3205147E-10
  8.3250003E-03    2.1713922E-10
  8.3600003E-03    9.4335283E-11
  8.3950004E-03    1.2424288E-10
  8.4300004E-03   -6.6304845E-10
  8.4650004E-03   -7.0414879E-10
  8.5000005E-03    4.8626281E-10
  8.5349996E-03    4.0639114E-10
  8.5699996E-03   -5.4166582E-10
  8.6049996E-03   -1.8237731E-10
  8.6399997E-03   -3.3454250E-11
  8.6749997E-03   -3.6705139E-10
  8.7099997E-03   -8.1668644E-11
  8.7449998E-03   -1.3841356E-10
  8.7799998E-03    3.5059197E-10
  8.8149998E-03    1.2682139E-09
  8.8499999E-03   -3.0286493E-10
  8.8849999E-03   -1.5208215E-09
  8.9199999E-03    9.2466718E-10
  8.9550000E-03    1.2085262E-09
  8.9900000E-03   -2.3516431E-09
  9.0250000E-03   -1.8213231E-09
  9.0600001E-03    2.0017199E-09
  9.0950001E-03    6.3756816E-10
  9.1300001E-03   -2.4332711E-09
  9.1650002E-03   -9.1687136E-10
  9.2000002E-03    1.1167426E-09
  9.2350002E-03    1.3587484E-10
  9.2700003E-03   -5.9842220E-10
  9.3050003E-03   -4.6577894E-11
  9.3400003E-03    1.4771771E-10
  9.3750004E-03    2.2247874E-10
  9.4100004E-03   -5.0452795E-11
  9.4450004E-03   -8.9285368E-10
  9.4799995E-03   -1.6266441E-10
  9.5149996E-03    1.6332294E-09
  9.5499996E-03    5.3348348E-10
  9.5849996E-03   -1.8929869E-09
  9.6199997E-03   -5.4637694E-10
  9.6549997E-03    1.2703408E-09
  9.6899997E-03   -3.9643896E-10
  9.7249998E-03   -1.2660534E-09
  9.7599998E-03    1.2591679E-09
  9.7949998E-03    1.5014727E-09
  9.8299999E-03   -1.1813502E-09
  9.8649999E-03   -1.3882928E-09
  9.8999999E-03   -5.0195403E-10
  9.9350000E-03   -4.0291301E-10
  9.9700000E-03    3.5730002E-10
  1.0005000E-02    2.1822535E-10
  1.0040000E-02   -1.1411531E-09
  1.0075000E-02   -3.3845640E-10
  1.0110000E-02    1.4314753E-09
  1.0145000E-02    8.9517127E-10
  1.0180000E-02    1.8114418E-10
  1.0215000E-02   -2.0774699E-10
  1.0250000E-02   -9.6640185E-10
  1.0285000E-02   -1.1872141E-10
  1.0320000E-02    3.7849643E-10
  1.0355000E-02    1.7873289E-10
  1.0390000E-02    9.5742725E-10
  1.0425000E-02    6.1788946E-10
  1.0460000E-02    2.1508491E-11
  1.0495000E-02    8.8038188E-10
  1.0530000E-02   -5.7592670E-10
  1.0565000E-02   -2.2617113E-09
  1.0600000E-02    4.9321996E-10
  1.0635000E-02    2.8493239E-09
  1.0670000E-02    4.3652301E-10
  1.0705000E-02   -1.4285376E-09
  1.0740000E-02   -4.0486731E-10
  1.0775000E-02    9.8925756E-10
  1.0810000E-02    1.3306887E-09
  1.0845000E-02    1.9615833E-11
  1.0880000E-02   -1.0093201E-09
  1.0915000E-02   -1.6834674E-10
  1.0950000E-02    1.7758388E-09
  1.0985000E-02    1.5167515E-09
  1.1020000E-02   -8.7468605E-10
  1.1055000E-02   -8.4823670E-10
  1.1090000E-02    1.7934259E-09
  1.1125000E-02    1.3027993E-09
  1.1160000E-02   -1.0547027E-09
  1.1195000E-02    6.1832522E-10
  1.1230000E-02    2.9858145E-09
  1.1265000E-02   -7.2113304E-10
  1.1300000E-02   -2.8267069E-09
  1.1335000E-02    1.4957747E-09
  1.1370000E-02    3.0549763E-09
  1.1405000E-02   -1.3630367E-09
  1.1440000E-02   -2.2055935E-09
  1.1475000E-02    1.6114862E-09
  1.1510000E-02    1.8645647E-09
  1.1545000E-02   -8.6961000E-10
  1.1580000E-02   -8.4622009E-10
  1.1615000E-02    1.3687920E-10
  1.1650000E-02   -1.1664602E-09
  1.1685000E-02   -1.1087617E-09
  1.1720000E-02    1.6815315E-09
  1.1755000E-02    1.9236255E-09
  1.1790000E-02    2.1671796E-10
  1.1825000E-02    1.0599946E-09
  1.1860000E-02   -3.7150491E-11
  1.1895000E-02   -4.3061936E-09
  1.1930000E-02   -2.8466369E-09
  1.1965000E-02    2.1414002E-09
  1.2000000E-02    1.2443876E-09
  1.2035000E-02   -8.1004764E-10
  1.2070000E-02    1.0677578E-09
  1.2105000E-02    1.0775068E-09
  1.2140000E-02   -1.0689036E-09
  1.2175000E-02   -1.2728787E-09
  1.2210000E-02   -1.3660419E-09
  1.2245000E-02   -1.3702065E-09
  1.2280000E-02    5.9477832E-11
  1.2315000E-02    2.3187732E-10
  1.2350000E-02   -6.9705003E-10
  1.2385000E-02   -4.8644783E-10
  1.2420000E-02   -3.9847917E-10
  1.2455000E-02   -9.5377650E-10
  1.2490000E-02   -1.1522551E-09
  1.2525000E-02   -9.7629194E-10
  1.2560000E-02   -1.2823780E-10
  1.2595000E-02    2.4442698E-10
  1.2630000E-02   -2.0926309E-10
  1.2665000E-02    8.8447200E-10
  1.2700000E-02    1.0183755E-09
  1.2735000E-02   -2.4830651E-09
  1.2770000E-02   -2.8251599E-09
  1.2805000E-02    1.0022827E-09
  1.2840000E-02   -7.0177357E-11
  1.2875000E-02   -3.3000409E-09
  1.2910000E-02   -6.5719807E-10
  1.2945000E-02    1.0886895E-09
  1.2980000E-02   -2.3945002E-09
  1.3015000E-02   -1.8626802E-09
  1.3050000E-02    2.6927915E-09
  1.3085000E-02    1.1215868E-09
  1.3120000E-02   -3.7173542E-09
  1.3155000E-02   -2.1422939E-09
  1.3190000E-02    2.3910571E-09
  1.3225000E-02    1.5667915E-09
  1.3260000E-02   -1.1406813E-09
  1.3295000E-02    4.8528326E-10
  1.3330000E-02    1.8109559E-09
  1.3365000E-02   -1.5153023E-09
  1.3400000E-02   -3.3491092E-09
  1.3435000E-02   -7.3403152E-11
  1.3470000E-02    2.3313247E-09
  1.3505000E-02    3.3572289E-10
  1.3540000E-02   -2.1238336E-09
  1.3575000E-02   -1.2576864E-09
  1.3610000E-02    1.2373550E-09
  1.3645000E-02    1.5130166E-09
  1.3680000E-02    6.8627354E-11
  1.3715000E-02   -6.5448669E-10
  1.3750000E-02   -1.6538030E-09
  1.3785000E-02   -1.7840143E-09
  1.3820000E-02    1.3087521E-09
  1.3855000E-02    2.5384199E-09
  1.3890000E-02   -3.2499001E-10
  1.3925000E-02   -5.3459365E-10
  1.3960000E-02    1.0464477E-09
  1.3995000E-02   -7.6219708E-10
  1.4030000E-02   -9.4744634E-10
  1.4065000E-02    1.7036933E-09
  1.4100000E-02    5.2728510E-10
  1.4135000E-02   -1.1810108E-09
  1.4170000E-02    1.2711517E-09
  1.4205000E-02    1.7594799E-09
  1.4240000E-02   -7.9679441E-10
  1.4275000E-02   -8.3548213E-10
  1.4310000E-02    1.0876094E-09
  1.4345000E-02    2.3462965E-09
  1.4380000E-02    1.5503209E-09
  1.4415000E-02   -1.4228481E-09
  1.4450000E-02   -1.4624318E-09
  1.4485000E-02    1.5347963E-09
  1.4520000E-02    3.5998404E-10
  1.4555000E-02   -2.0437845E-09
  1.4590000E-02    6.7627781E-10
  1.4625000E-02    2.4902944E-09
  1.4660000E-02   -6.0117522E-10
  1.4695000E-02   -2.6928826E-09
  1.4730000E-02   -1.2313643E-09
  1.4765000E-02    1.1108389E-09
  1.4800000E-02    1.3778916E-09
  1.4835000E-02   -6.9879991E-10
  1.4870000E-02   -2.7329036E-10
  1.4905000E-02    2.6850941E-09
  1.4940000E-02    1.1475952E-09
  1.4975000E-02   -2.2076190E-09
  1.5010000E-02    4.9977040E-11
  1.5045000E-02    2.8512803E-09
  1.5080000E-02    8.4956020E-10
  1.5115000E-02   -7.2373291E-10
  1.5150000E-02   -7.0357054E-12
  1.5185000E-02   -3.1790773E-10
  1.5220000E-02   -6.1896110E-10
  1.5255000E-02    2.6606400E-10
  1.5290000E-02    3.8749109E-10
  1.5325000E-02    1.5987325E-10
  1.5360000E-02    8.1190193E-10
  1.5395000E-02    6.7234063E-10
  1.5430000E-02   -1.0434571E-09
  1.5465000E-02   -1.5614278E-09
  1.5500000E-02    1.1286762E-10
  1.5535000E-02    3.7156606E-10
  1.5570000E-02   -1.6690860E-09
  1.5605000E-02   -1.0544796E-09
  1.5640000E-02    2.9137837E-09
  1.5675001E-02    4.0007273E-09
  1.5710000E-02    1.4828656E-10
  1.5745001E-02   -2.7664679E-09
  1.5780000E-02   -7.9936868E-10
  1.5814999E-02    2.3618274E-09
  1.5850000E-02    1.8982582E-09
  1.5884999E-02   -4.0639533E-10
  1.5920000E-02   -2.4827940E-10
  1.5954999E-02    7.2689527E-10
  1.5990000E-02   -9.2731883E-10
  1.6024999E-02   -2.1744471E-09
  1.6060000E-02    4.1387835E-10
  1.6094999E-02    2.0477220E-09
  1.6130000E-02   -1.3428041E-09
  1.6164999E-02   -3.3642025E-09
  1.6200000E-02    6.3912886E-10
  1.6235000E-02    3.6155190E-09
  1.6270000E-02    1.7430356E-09
  1.6305000E-02    1.0084540E-09
  1.6340001E-02    1.8333306E-09
  1.6375000E-02   -6.0794364E-10
  1.6410001E-02   -3.2213201E-09
  1.6445000E-02   -1.5043932E-09
  1.6480001E-02    1.3542841E-09
  1.6515000E-02    1.9250990E-09
  1.6550001E-02    1.6062897E-09
  1.6585000E-02    1.5802758E-09
  1.6620001E-02    4.5545392E-10
  1.6655000E-02   -2.0105506E-09
  1.6690001E-02   -2.0659190E-09
  1.6725000E-02    1.1964676E-09
  1.6759999E-02    2.3737177E-09
  1.6795000E-02    3.2551914E-10
  1.6829999E-02   -4.0311476E-11
  1.6865000E-02    6.9931611E-10
  1.6899999E-02   -8.5207774E-10
  1.6935000E-02   -2.2961990E-09
  1.6969999E-02   -9.1705432E-10
  1.7005000E-02    1.4900358E-09
  1.7039999E-02    1.7232498E-09
  1.7075000E-02   -5.1725935E-10
  1.7109999E-02   -1.0133338E-09
  1.7145000E-02    1.0959681E-09
  1.7180000E-02    6.0713018E-10
  1.7215000E-02   -1.0626272E-09
  1.7250000E-02    9.5241903E-10
  1.7285001E-02    1.6203550E-09
  1.7320000E-02   -1.5615839E-09
  1.7355001E-02   -1.5113927E-09
  1.7390000E-02    4.7051618E-10
  1.7425001E-02   -1.3031598E-09
  1.7460000E-02   -1.5534182E-09
  1.7495001E-02    1.8967898E-09
  1.7530000E-02    1.4370843E-09
  1.7565001E-02   -1.9754542E-09
  1.7600000E-02   -1.1663904E-09
  1.7635001E-02    1.0606388E-09
  1.7670000E-02   -9.5825747E-10
  1.7704999E-02   -3.4660328E-09
  1.7740000E-02   -1.0844149E-09
  1.7774999E-02    2.3036659E-09
  1.7810000E-02    3.9778689E-10
  1.7844999E-02   -3.0261453E-09
  1.7880000E-02   -1.2200810E-09
  1.7914999E-02    1.3167196E-09
  1.7950000E-02   -1.3979887E-09
  1.7984999E-02   -3.3547780E-09
  1.8020000E-02    1.0460728E-10
  1.8054999E-02    1.6849837E-09
  1.8090000E-02   -2.1960644E-09
  1.8124999E-02   -4.5591650E-09
  1.8160000E-02   -2.4659876E-09
  1.8195000E-02   -2.0511690E-10
  1.8230001E-02    3.4288089E-10
  1.8265000E-02   -3.5579592E-10
  1.8300001E-02   -2.1949429E-09
  1.8335000E-02   -3.0072451E-09
  1.8370001E-02   -1.9187654E-09
  1.8405000E-02   -1.7958608E-09
  1.8440001E-02   -2.1573174E-09
  1.8475000E-02   -4.5295018E-11
  1.8510001E-02    1.3760043E-09
  1.8545000E-02   -1.5964617E-09
  1.8580001E-02   -4.0921875E-09
  1.8615000E-02   -1.5156031E-09
  1.8650001E-02    1.4907878E-09
  1.8685000E-02   -1.3851918E-10
  1.8719999E-02   -3.2140999E-09
  1.8755000E-02   -2.6022691E-09
  1.8789999E-02    5.5971683E-10
  1.8825000E-02    1.5500112E-09
  1.8859999E-02   -4.4813817E-10
  1.8895000E-02   -1.4867763E-09
  1.8929999E-02    4.8878283E-11
  1.8965000E-02    1.9980541E-10
  1.8999999E-02   -2.2577489E-09
  1.9035000E-02   -1.5499544E-09
  1.9069999E-02    2.9315725E-09
  1.9105000E-02    2.7097444E-09
  1.9140000E-02   -2.0342845E-09
  1.9175000E-02   -1.0666854E-09
  1.9210000E-02    3.8182031E-09
  1.9245001E-02    2.5371962E-09
  1.9280000E-02   -1.1988575E-09
  1.9315001E-02    2.8641661E-10
  1.9350000E-02    2.1121196E-09
  1.9385001E-02    9.4450592E-10
  1.9420000E-02    1.3391857E-09
  1.9455001E-02    1.6300019E-09
  1.9490000E-02   -6.3311456E-10
  1.9525001E-02    6.8730931E-11
  1.9560000E-02    2.9125351E-09
  1.9595001E-02    1.1185313E-09
  1.9630000E-02   -9.2341840E-10
  1.9664999E-02    1.6539569E-09
  1.9700000E-02    1.9566220E-09
  1.9734999E-02   -7.6877116E-10
  1.9770000E-02    9.6693142E-10
  1.9804999E-02    3.6664596E-09
  1.9840000E-02    1.4816970E-09
  1.9874999E-02    2.0093761E-10
  1.9910000E-02    2.0771898E-09
  1.9944999E-02    1.3982475E-09
  1.9980000E-02   -1.3165843E-10
  2.0014999E-02    1.5702286E-09
  2.0050000E-02    2.4959053E-09
  2.0085000E-02    6.7307465E-10
  2.0120000E-02   -3.8712530E-11
  2.0155000E-02    2.8406585E-10
  2.0190001E-02   -4.4596085E-10
  2.0225000E-02   -3.0937022E-10
  2.0260001E-02    1.2839053E-09
  2.0295000E-02    1.3399916E-09
  2.0330001E-02    1.1875910E-10
  2.0365000E-02    1.0146766E-09
  2.0400001E-02    2.9853424E-09
  2.0435000E-02    1.5339200E-09
  2.0470001E-02   -2.4082696E-09
  2.0505000E-02   -2.8750688E-09
  2.0540001E-02    3.5090184E-10
  2.0575000E-02    1.3959386E-09
  2.0609999E-02   -9.2796833E-11
  2.0645000E-02    3.1911451E-10
  2.0679999E-02    1.0885864E-09
  2.0715000E-02   -8.9260366E-10
  2.0749999E-02   -1.9306934E-09
  2.0785000E-02   -2.3115516E-10
  2.0819999E-02   -2.4109528E-10
  2.0855000E-02   -2.1120981E-09
  2.0889999E-02   -2.2509585E-09
  2.0925000E-02   -1.0786172E-09
  2.0959999E-02    3.2004013E-10
  2.0995000E-02    1.2579389E-09
  2.1029999E-02   -4.5945295E-10
  2.1065000E-02   -2.3200848E-09
  2.1100000E-02   -4.4169665E-10
  2.1135001E-02    1.2365926E-09
  2.1170000E-02   -4.1122128E-10
  2.1205001E-02   -1.2578487E-09
  2.1240000E-02   -5.0789656E-10
  2.1275001E-02   -1.2555417E-09
  2.1310000E-02   -2.4609847E-09
  2.1345001E-02   -2.0633451E-09
  2.1380000E-02   -5.0706861E-10
  2.1415001E-02    6.6974137E-10
  2.1450000E-02   -3.2089012E-10
  2.1485001E-02   -1.7137615E-09
  2.1520000E-02    4.2075791E-11
  2.1555001E-02    2.1643587E-09
  2.1590000E-02    2.6366984E-10
  2.1624999E-02   -2.7034395E-09
  2.1660000E-02   -2.3930877E-09
  2.1694999E-02    4.8457037E-11
  2.1730000E-02    1.3498435E-09
  2.1764999E-02   -3.8426324E-12
  2.1800000E-02   -2.1601299E-09
  2.1834999E-02   -1.4451896E-09
  2.1870000E-02    1.3643723E-09
  2.1904999E-02    1.4286231E-09
  2.1940000E-02   -1.0652710E-09
  2.1974999E-02   -1.0128207E-09
  2.2010000E-02    1.3146746E-09
  2.2045000E-02    9.5986086E-10
  2.2080000E-02   -1.3626132E-09
  2.2115000E-02   -1.1683117E-09
  2.2150001E-02    1.0422246E-09
  2.2185000E-02    2.5753977E-09
  2.2220001E-02    2.5959519E-09
  2.2255000E-02    7.3797651E-10
  2.2290001E-02   -5.2510762E-10
  2.2325000E-02    1.1901087E-09
  2.2360001E-02    1.5997664E-09
  2.2395000E-02   -1.0978537E-09
  2.2430001E-02   -6.0398164E-10
  2.2465000E-02    3.0026108E-09
  2.2500001E-02    2.2824078E-09
  2.2535000E-02   -1.4578685E-09
  2.2569999E-02   -1.3461566E-09
  2.2605000E-02    1.4540480E-09
  2.2639999E-02    1.8460229E-09
  2.2675000E-02    2.2186296E-10
  2.2709999E-02   -1.4195974E-10
  2.2745000E-02    9.0770474E-10
  2.2779999E-02    1.7341157E-09
  2.2815000E-02    2.5453926E-09
  2.2849999E-02    2.9169485E-09
  2.2885000E-02    1.0932193E-09
  2.2919999E-02   -8.5227730E-10
  2.2955000E-02    4.7004139E-10
  2.2990000E-02    2.8160059E-09
  2.3025000E-02    2.3903250E-09
  2.3060000E-02    4.9453419E-10
  2.3095001E-02    7.3392803E-10
  2.3130000E-02    2.7119080E-09
  2.3165001E-02    1.8519031E-09
  2.3200000E-02   -2.0541366E-09
  2.3235001E-02   -2.4664086E-09
  2.3270000E-02    1.2664992E-09
  2.3305001E-02    1.8422461E-09
  2.3340000E-02   -8.9267438E-10
  2.3375001E-02   -2.1870139E-10
  2.3410000E-02    2.8504006E-09
  2.3445001E-02    1.4757483E-09
  2.3480000E-02   -3.0555343E-09
  2.3514999E-02   -2.5810010E-09
  2.3550000E-02    2.1491255E-09
  2.3584999E-02    2.0382889E-09
  2.3620000E-02   -1.1013689E-09
  2.3654999E-02    8.7832386E-10
  2.3690000E-02    2.2751812E-09
  2.3724999E-02   -2.5245872E-09
  2.3760000E-02   -3.7763423E-09
  2.3794999E-02    5.9277544E-10
  2.3830000E-02    3.3308117E-10
  2.3864999E-02   -2.3418114E-09
  2.3900000E-02    1.5356014E-10
  2.3934999E-02    2.3132400E-09
  2.3970000E-02   -5.2007304E-10
  2.4005000E-02   -2.7423739E-09
  2.4040001E-02   -1.6507087E-09
  2.4075000E-02   -8.4379548E-10
  2.4110001E-02   -1.4980509E-09
  2.4145000E-02   -8.6498503E-10
  2.4180001E-02    1.3441740E-09
  2.4215000E-02    9.4042540E-10
  2.4250001E-02   -2.5736706E-09
  2.4285000E-02   -3.7227952E-09
  2.4320001E-02   -1.2133859E-09
  2.4355000E-02    3.8570544E-10
  2.4390001E-02   -3.5352574E-10
  2.4425000E-02   -8.1344670E-10
  2.4460001E-02   -5.2351207E-10
  2.4495000E-02   -1.7968281E-09
  2.4529999E-02   -3.5092083E-09
  2.4565000E-02   -1.6687893E-09
  2.4599999E-02    4.6991583E-10
  2.4635000E-02   -2.2241327E-09
  2.4669999E-02   -3.1625413E-09
  2.4705000E-02    1.6801863E-09
  2.4739999E-02    2.4669653E-09
  2.4775000E-02   -1.7629309E-09
  2.4809999E-02   -1.0198170E-09
  2.4845000E-02    1.2345606E-09
  2.4879999E-02   -2.0379314E-09
  2.4915000E-02   -3.6928249E-09
  2.4950000E-02    3.3207109E-10
  2.4985000E-02    2.9379996E-09
  2.5020000E-02    1.4634092E-09
  2.5055001E-02   -5.6198163E-10
  2.5090000E-02   -1.1401512E-09
  2.5125001E-02   -6.3116151E-10
  2.5160000E-02   -3.1605718E-10
  2.5195001E-02    1.7923575E-10
  2.5230000E-02    1.6006633E-09
  2.5265001E-02    1.6641060E-09
  2.5300000E-02   -1.0813868E-10
  2.5335001E-02   -8.8945762E-10
  2.5370000E-02   -4.6564730E-10
  2.5405001E-02    4.8751925E-10
  2.5440000E-02    1.7979959E-09
  2.5474999E-02    1.0287885E-09
  2.5510000E-02   -9.6394570E-10
  2.5544999E-02    4.3993489E-11
  2.5580000E-02    2.1464401E-09
  2.5614999E-02    1.3479681E-09
  2.5650000E-02   -4.0508444E-10
  2.5684999E-02   -5.0587651E-10
  2.5720000E-02    6.7574946E-10
  2.5754999E-02    1.6436287E-09
  2.5790000E-02    7.0940276E-10
  2.5824999E-02   -5.1214161E-10
  2.5860000E-02    1.0601932E-09
  2.5895000E-02    3.1033272E-09
  2.5930000E-02    1.9357747E-09
  2.5965000E-02   -5.8313127E-10
  2.6000001E-02   -5.4494437E-10
  2.6035000E-02    1.8196833E-09
  2.6070001E-02    1.8573942E-09
  2.6105000E-02   -1.3312205E-09
  2.6140001E-02   -1.1751157E-09
  2.6175000E-02    2.9124667E-09
  2.6210001E-02    2.4513676E-09
  2.6245000E-02   -2.0744673E-09
  2.6280001E-02   -2.2042428E-09
  2.6315000E-02    1.3688921E-09
  2.6350001E-02    2.7363261E-09
  2.6385000E-02    1.4713140E-09
  2.6419999E-02    3.7189202E-10
  2.6455000E-02    8.7340807E-10
  2.6489999E-02    4.7437565E-10
  2.6525000E-02   -2.0291344E-09
  2.6559999E-02   -1.6341446E-09
  2.6595000E-02    9.0090740E-10
  2.6629999E-02   -5.9670491E-10
  2.6665000E-02   -9.6778563E-10
  2.6699999E-02    3.1974956E-09
  2.6735000E-02    1.5319377E-09
  2.6769999E-02   -4.2386721E-09
  2.6805000E-02   -1.9073314E-09
  2.6839999E-02    2.3412563E-09
  2.6875000E-02   -3.6284451E-11
  2.6910000E-02   -1.1208403E-09
  2.6945001E-02    1.2327501E-09
  2.6980000E-02    6.6868139E-10