 -4.8000002E-03    1.0000000E-24
 -4.7650002E-03    1.0000002E-24
 -4.7300002E-03    1.0000001E-24
 -4.6950001E-03    1.0000000E-24
 -4.6600001E-03    1.0000002E-24
 -4.6250001E-03    1.0000002E-24
 -4.5900000E-03    1.0000003E-24
 -4.5550000E-03    1.0000001E-24
 -4.5200000E-03    9.9999992E-25
 -4.4849999E-03    1.0000003E-24
 -4.4499999E-03    1.0000002E-24
 -4.4149999E-03    9.9999982E-25
 -4.3799998E-03    1.0000000E-24
 -4.3449998E-03    1.0000006E-24
 -4.3100002E-03    1.0000005E-24
 -4.2750002E-03    1.0000001E-24
 -4.2400002E-03    9.9999992E-25
 -4.2050001E-03    1.0000001E-24
 -4.1700001E-03    1.0000001E-24
 -4.1350001E-03    9.9999992E-25
 -4.1000000E-03    1.0000000E-24
 -4.0650000E-03    1.0000001E-24
 -4.0300000E-03    1.0000001E-24
 -3.9949999E-03    9.9999992E-25
 -3.9599999E-03    9.9999982E-25
 -3.9249999E-03    9.9999992E-25
 -3.8900001E-03    1.0000002E-24
 -3.8550000E-03    1.0000003E-24
 -3.8200000E-03    1.0000003E-24
 -3.7849999E-03    1.0000004E-24
 -3.7499999E-03    1.0000000E-24
 -3.7150001E-03    1.0000001E-24
 -3.6800001E-03    1.0000004E-24
 -3.6450000E-03    1.0000001E-24
 -3.6100000E-03    9.9999982E-25
 -3.5750000E-03    1.0000002E-24
 -3.5399999E-03    9.9999923E-25
 -3.5049999E-03    9.9999874E-25
 -3.4700001E-03    1.0000103E-24
 -3.4350001E-03    9.9998888E-25
 -3.4000000E-03    9.9994283E-25
 -3.3650000E-03    1.0002016E-24
 -3.3300000E-03    9.9999765E-25
 -3.2949999E-03    9.9876131E-25
 -3.2599999E-03    1.0022692E-24
 -3.2250001E-03    1.0026522E-24
 -3.1900001E-03    9.8339568E-25
 -3.1550000E-03    1.0161850E-24
 -3.1200000E-03    1.0549076E-24
 -3.0850000E-03    8.2476694E-25
 -3.0499999E-03    1.0174038E-24
 -3.0149999E-03    1.8165723E-24
 -2.9800001E-03   -2.4337478E-25
 -2.9450001E-03   -1.0158351E-24
 -2.9100000E-03    8.7226165E-24
 -2.8750000E-03    5.2591621E-25
 -2.8400000E-03   -2.8078384E-23
 -2.8049999E-03    3.0997257E-23
 -2.7699999E-03    7.3432159E-23
 -2.7350001E-03   -1.6005253E-22
 -2.7000001E-03   -8.8396187E-23
 -2.6650000E-03    5.4712883E-22
 -2.6300000E-03   -1.7870443E-22
 -2.5950000E-03   -1.3179886E-21
 -2.5599999E-03    1.4690466E-21
 -2.5249999E-03    2.0982377E-21
 -2.4900001E-03   -5.0611631E-21
 -2.4550001E-03   -7.7171816E-22
 -2.4200000E-03    1.1761902E-20
 -2.3850000E-03   -8.1251262E-21
 -2.3500000E-03   -1.8094970E-20
 -2.3149999E-03    3.3378483E-20
 -2.2799999E-03    8.7926044E-21
 -2.2450001E-03   -8.0380714E-20
 -2.2100001E-03    5.1558465E-20
 -2.1750000E-03    1.3188794E-19
 -2.1400000E-03   -2.1627967E-19
 -2.1050000E-03   -1.1664237E-19
 -2.0699999E-03    5.2425001E-19
 -2.0349999E-03   -1.1449687E-19
 -2.0000001E-03   -9.2153390E-19
 -1.9650001E-03    7.5884143E-19
 -1.9300000E-03    1.1519915E-18
 -1.8950000E-03   -1.9212448E-18
 -1.8600000E-03   -6.8775534E-19
 -1.8250000E-03    3.3460523E-18
 -1.7900000E-03   -1.1861714E-18
 -1.7550000E-03   -4.1128872E-18
 -1.7199999E-03    5.0620236E-18
 -1.6850000E-03    2.5128409E-18
 -1.6500000E-03   -1.0984011E-17
 -1.6150000E-03    3.6629464E-18
 -1.5800000E-03    1.8278519E-17
 -1.5450000E-03   -1.6402965E-17
 -1.5100000E-03   -2.6135246E-17
 -1.4750001E-03    3.6693801E-17
 -1.4400000E-03    3.5166055E-17
 -1.4050000E-03   -6.4287571E-17
 -1.3700000E-03   -4.9471495E-17
 -1.3350000E-03    9.8279459E-17
 -1.3000000E-03    7.8045086E-17
 -1.2650000E-03   -1.3770453E-16
 -1.2300001E-03   -1.3433981E-16
 -1.1950000E-03    1.8023168E-16
 -1.1600000E-03    2.3385269E-16
 -1.1250000E-03   -2.1694300E-16
 -1.0900000E-03   -3.9087680E-16
 -1.0550000E-03    2.2282848E-16
 -1.0200000E-03    6.1537976E-16
 -9.8500005E-04   -1.4528025E-16
 -9.5000002E-04   -9.0819137E-16
 -9.1499998E-04   -1.0540865E-16
 -8.8000001E-04    1.2488074E-15
 -8.4499997E-04    6.6014275E-16
 -8.1000000E-04   -1.5693659E-15
 -7.7500002E-04   -1.6883689E-15
 -7.3999999E-04    1.7133090E-15
 -7.0500001E-04    3.3871014E-15
 -6.6999998E-04   -1.3843452E-15
 -6.3500000E-04   -5.9531894E-15
 -6.0000003E-04    9.2840125E-17
 -5.6499999E-04    9.5164346E-15
 -5.3000002E-04    2.8981925E-15
 -4.9499999E-04   -1.3999379E-14
 -4.6000001E-04   -8.6217375E-15
 -4.2500001E-04    1.8879926E-14
 -3.9000000E-04    1.8417193E-14
 -3.5500000E-04   -2.2872031E-14
 -3.1999999E-04   -3.3823960E-14
 -2.8499999E-04    2.3584423E-14
 -2.5000001E-04    5.6246494E-14
 -2.1499999E-04   -1.7217695E-14
 -1.8000000E-04   -8.6272752E-14
 -1.4500000E-04   -1.6750906E-15
 -1.1000000E-04    1.2252444E-13
 -7.5000004E-05    4.0275072E-14
 -3.9999999E-05   -1.5995212E-13
 -4.9999999E-06   -1.0702346E-13
  2.9999999E-05    1.8770082E-13
  6.5000000E-05    2.0975428E-13
  9.9999997E-05   -1.8722452E-13
  1.3499999E-04   -3.5166276E-13
  1.7000000E-04    1.3191474E-13
  2.0500000E-04    5.2531823E-13
  2.3999999E-04    1.0644968E-14
  2.7500000E-04   -7.0608450E-13
  3.1000000E-04   -2.7353965E-13
  3.4500001E-04    8.4622316E-13
  3.8000001E-04    6.8214266E-13
  4.1499999E-04   -8.7020923E-13
  4.4999999E-04   -1.2398533E-12
  4.8500000E-04    6.7418087E-13
  5.2000000E-04    1.9052327E-12
  5.5499998E-04   -1.3779642E-13
  5.9000001E-04   -2.5657837E-12
  6.2499999E-04   -8.4368504E-13
  6.6000002E-04    3.0247901E-12
  6.9500000E-04    2.3125163E-12
  7.3000003E-04   -3.0144626E-12
  7.6500000E-04   -4.2035451E-12
  7.9999998E-04    2.2304131E-12
  8.3500001E-04    6.3071323E-12
  8.6999999E-04   -3.7944458E-13
  9.0500002E-04   -8.2310617E-12
  9.4000000E-04   -2.7413863E-12
  9.7499997E-04    9.3767806E-12
  1.0100000E-03    7.1110795E-12
  1.0450000E-03   -8.9921551E-12
  1.0800000E-03   -1.2333273E-11
  1.1150000E-03    6.3469351E-12
  1.1500000E-03    1.7565050E-11
  1.1849999E-03   -9.8271196E-13
  1.2200000E-03   -2.1590453E-11
  1.2550000E-03   -7.0699891E-12
  1.2900000E-03    2.3006654E-11
  1.3250000E-03    1.7165313E-11
  1.3600000E-03   -2.0456171E-11
  1.3950000E-03   -2.7985156E-11
  1.4299999E-03    1.2890041E-11
  1.4650000E-03    3.7520483E-11
  1.5000000E-03    8.1177483E-14
  1.5350000E-03   -4.3156423E-11
  1.5700000E-03   -1.7701885E-11
  1.6050000E-03    4.2092937E-11
  1.6400000E-03    3.7657075E-11
  1.6749999E-03   -3.2262568E-11
  1.7100000E-03   -5.6272577E-11
  1.7450000E-03    1.3281510E-11
  1.7800000E-03    6.9517656E-11
  1.8150000E-03    1.3450747E-11
  1.8500000E-03   -7.3890213E-11
  1.8850000E-03   -4.5362131E-11
  1.9200000E-03    6.6300444E-11
  1.9550000E-03    7.8541840E-11
  1.9900000E-03   -4.4124489E-11
  2.0250001E-03   -1.0666999E-10
  2.0600001E-03    7.2447538E-12
  2.0949999E-03    1.2171303E-10
  2.1299999E-03    3.9546009E-11
  2.1650000E-03   -1.1759393E-10
  2.2000000E-03   -8.7633158E-11
  2.2350000E-03    9.2953416E-11
  2.2700001E-03    1.2836232E-10
  2.3050001E-03   -4.9745229E-11
  2.3399999E-03   -1.5415293E-10
  2.3749999E-03   -8.4067458E-12
  2.4100000E-03    1.5676839E-10
  2.4450000E-03    7.3627736E-11
  2.4800000E-03   -1.2920015E-10
  2.5150001E-03   -1.3162572E-10
  2.5500001E-03    7.1837307E-11
  2.5849999E-03    1.6627610E-10
  2.6199999E-03    5.1483501E-12
  2.6550000E-03   -1.6678482E-10
  2.6900000E-03   -8.5816271E-11
  2.7250000E-03    1.3032771E-10
  2.7600001E-03    1.5263030E-10
  2.7950001E-03   -6.2213804E-11
  2.8299999E-03   -1.8946335E-10
  2.8649999E-03   -2.3964674E-11
  2.9000000E-03    1.8619986E-10
  2.9350000E-03    1.0975205E-10
  2.9700000E-03   -1.4054467E-10
  3.0050001E-03   -1.7529470E-10
  3.0400001E-03    5.7061068E-11
  3.0749999E-03    1.9762572E-10
  3.1099999E-03    4.5734819E-11
  3.1450000E-03   -1.5773267E-10
  3.1800000E-03   -1.2934261E-10
  3.2150000E-03    6.2972183E-11
  3.2500001E-03    1.5644097E-10
  3.2850001E-03    4.9391512E-11
  3.3199999E-03   -1.2097544E-10
  3.3549999E-03   -1.4500640E-10
  3.3900000E-03    3.7217941E-11
  3.4250000E-03    2.0699877E-10
  3.4600000E-03    8.7358683E-11
  3.4950001E-03   -2.0722535E-10
  3.5300001E-03   -2.2577437E-10
  3.5649999E-03    1.1941359E-10
  3.5999999E-03    3.1158906E-10
  3.6350000E-03    2.2675131E-11
  3.6700000E-03   -3.0617789E-10
  3.7050000E-03   -1.5654866E-10
  3.7400001E-03    2.2230527E-10
  3.7750001E-03    2.4315455E-10
  3.8099999E-03   -8.4438741E-11
  3.8449999E-03   -2.5141980E-10
  3.8800000E-03   -5.9113700E-11
  3.9149998E-03    1.8872755E-10
  3.9499998E-03    1.8920354E-10
  3.9849998E-03   -2.1280545E-11
  4.0199999E-03   -1.7508379E-10
  4.0549999E-03   -6.2398219E-11
  4.0899999E-03    2.0313395E-10
  4.1250000E-03    2.3924385E-10
  4.1600000E-03   -6.0763894E-11
  4.1950000E-03   -2.2114612E-10
  4.2300001E-03    1.1285044E-10
  4.2650001E-03    4.6166543E-10
  4.3000001E-03    2.5591804E-10
  4.3350002E-03   -9.8831290E-11
  4.3700002E-03    9.0735197E-11
  4.4049998E-03    5.2604260E-10
  4.4399998E-03    4.8786969E-10
  4.4749998E-03    1.8930206E-10
  4.5099999E-03    3.4823688E-10
  4.5449999E-03    8.4104379E-10
  4.5799999E-03    9.7037733E-10
  4.6150000E-03    7.7628426E-10
  4.6500000E-03    9.1363167E-10
  4.6850001E-03    1.4022795E-09
  4.7200001E-03    1.6866506E-09
  4.7550001E-03    1.7855064E-09
  4.7900002E-03    2.1712072E-09
  4.8250002E-03    2.7602163E-09
  4.8600002E-03    3.1901974E-09
  4.8949998E-03    3.6615491E-09
  4.9299998E-03    4.4696900E-09
  4.9649999E-03    5.3276690E-09
  4.9999999E-03    6.0309300E-09
  5.0349999E-03    7.0197959E-09
  5.0700000E-03    8.5123428E-09
  5.1050000E-03    1.0012794E-08
  5.1400000E-03    1.1393827E-08
  5.1750001E-03    1.3299214E-08
  5.2100001E-03    1.5848169E-08
  5.2450001E-03    1.8378771E-08
  5.2800002E-03    2.0897907E-08
  5.3150002E-03    2.4214817E-08
  5.3500002E-03    2.8484649E-08
  5.3849998E-03    3.3032840E-08
  5.4199998E-03    3.7705224E-08
  5.4549999E-03    4.3306709E-08
  5.4899999E-03    5.0265783E-08
  5.5249999E-03    5.7866675E-08
  5.5600000E-03    6.5864448E-08
  5.5950000E-03    7.5360205E-08
  5.6300000E-03    8.6689610E-08
  5.6650001E-03    9.8989737E-08
  5.7000001E-03    1.1260544E-07
  5.7350001E-03    1.2856694E-07
  5.7700002E-03    1.4652788E-07
  5.8050002E-03    1.6623768E-07
  5.8400002E-03    1.8856502E-07
  5.8749998E-03    2.1385983E-07
  5.9099998E-03    2.4206778E-07
  5.9449999E-03    2.7356941E-07
  5.9799999E-03    3.0863927E-07
  6.0149999E-03    3.4795244E-07
  6.0500000E-03    3.9212995E-07
  6.0850000E-03    4.4070219E-07
  6.1200000E-03    4.9447237E-07
  6.1550001E-03    5.5539539E-07
  6.1900001E-03    6.2262802E-07
  6.2250001E-03    6.9544166E-07
  6.2600002E-03    7.7681068E-07
  6.2950002E-03    8.6800384E-07
  6.3299998E-03    9.6738438E-07
  6.3649998E-03    1.0761505E-06
  6.3999998E-03    1.1964675E-06
  6.4349999E-03    1.3286412E-06
  6.4699999E-03    1.4740391E-06
  6.5049999E-03    1.6333471E-06
  6.5400000E-03    1.8061694E-06
  6.5750000E-03    1.9953807E-06
  6.6100000E-03    2.2032466E-06
  6.6450001E-03    2.4285725E-06
  6.6800001E-03    2.6733878E-06
  6.7150001E-03    2.9405569E-06
  6.7500002E-03    3.2290716E-06
  6.7850002E-03    3.5414625E-06
  6.8199998E-03    3.8823860E-06
  6.8549998E-03    4.2499373E-06
  6.8899998E-03    4.6438868E-06
  6.9249999E-03    5.0703502E-06
  6.9599999E-03    5.5311780E-06
  6.9949999E-03    6.0253942E-06
  7.0300000E-03    6.5555232E-06
  7.0650000E-03    7.1234717E-06
  7.1000000E-03    7.7318437E-06
  7.1350001E-03    8.3850900E-06
  7.1700001E-03    9.0818312E-06
  7.2050001E-03    9.8217861E-06
  7.2400002E-03    1.0612657E-05
  7.2750002E-03    1.1456669E-05
  7.3099998E-03    1.2350334E-05
  7.3449998E-03    1.3298077E-05
  7.3799998E-03    1.4304667E-05
  7.4149999E-03    1.5368076E-05
  7.4499999E-03    1.6490952E-05
  7.4850000E-03    1.7678238E-05
  7.5200000E-03    1.8928980E-05
  7.5550000E-03    2.0244011E-05
  7.5900001E-03    2.1628048E-05
  7.6250001E-03    2.3080580E-05
  7.6600001E-03    2.4602115E-05
  7.6950002E-03    2.6196087E-05
  7.7300002E-03    2.7861650E-05
  7.7650002E-03    2.9597521E-05
  7.7999998E-03    3.1408243E-05
  7.8349998E-03    3.3294215E-05
  7.8699999E-03    3.5251982E-05
  7.9049999E-03    3.7284153E-05
  7.9399999E-03    3.9391274E-05
  7.9750000E-03    4.1570449E-05
  8.0100000E-03    4.3821019E-05
  8.0450000E-03    4.6142515E-05
  8.0800001E-03    4.8532347E-05
  8.1150001E-03    5.0990377E-05
  8.1500001E-03    5.3513781E-05
  8.1850002E-03    5.6097673E-05
  8.2200002E-03    5.8742862E-05
  8.2550002E-03    6.1446284E-05
  8.2900003E-03    6.4199303E-05
  8.3250003E-03    6.7000743E-05
  8.3600003E-03    6.9850146E-05
  8.3950004E-03    7.2738287E-05
  8.4300004E-03    7.5659809E-05
  8.4650004E-03    7.8611600E-05
  8.5000005E-03    8.1586026E-05
  8.5349996E-03    8.4578365E-05
  8.5699996E-03    8.7582746E-05
  8.6049996E-03    9.0588677E-05
  8.6399997E-03    9.3591574E-05
  8.6749997E-03    9.6587464E-05
  8.7099997E-03    9.9565164E-05
  8.7449998E-03    1.0251411E-04
  8.7799998E-03    1.0542781E-04
  8.8149998E-03    1.0830008E-04
  8.8499999E-03    1.1112470E-04
  8.8849999E-03    1.1388939E-04
  8.9199999E-03    1.1658158E-04
  8.9550000E-03    1.1920019E-04
  8.9900000E-03    1.2173596E-04
  9.0250000E-03    1.2417077E-04
  9.0600001E-03    1.2650198E-04
  9.0950001E-03    1.2872770E-04
  9.1300001E-03    1.3082885E-04
  9.1650002E-03    1.3279676E-04
  9.2000002E-03    1.3463275E-04
  9.2350002E-03    1.3632457E-04
  9.2700003E-03    1.3786089E-04
  9.3050003E-03    1.3923823E-04
  9.3400003E-03    1.4044828E-04
  9.3750004E-03    1.4148584E-04
  9.4100004E-03    1.4234624E-04
  9.4450004E-03    1.4301809E-04
  9.4799995E-03    1.4350076E-04
  9.5149996E-03    1.4379538E-04
  9.5499996E-03    1.4388752E-04
  9.5849996E-03    1.4377548E-04
  9.6199997E-03    1.4346898E-04
  9.6549997E-03    1.4295765E-04
  9.6899997E-03    1.4223508E-04
  9.7249998E-03    1.4131305E-04
  9.7599998E-03    1.4018801E-04
  9.7949998E-03    1.3885327E-04
  9.8299999E-03    1.3732104E-04
  9.8649999E-03    1.3559387E-04
  9.8999999E-03    1.3366806E-04
  9.9350000E-03    1.3155401E-04
  9.9700000E-03    1.2925793E-04
  1.0005000E-02    1.2678203E-04
  1.0040000E-02    1.2413882E-04
  1.0075000E-02    1.2133189E-04
  1.0110000E-02    1.1836241E-04
  1.0145000E-02    1.1525132E-04
  1.0180000E-02    1.1201126E-04
  1.0215000E-02    1.0863807E-04
  1.0250000E-02    1.0514621E-04
  1.0285000E-02    1.0155536E-04
  1.0320000E-02    9.7869612E-05
  1.0355000E-02    9.4101619E-05
  1.0390000E-02    9.0267575E-05
  1.0425000E-02    8.6373853E-05
  1.0460000E-02    8.2436105E-05
  1.0495000E-02    7.8471450E-05
  1.0530000E-02    7.4485230E-05
  1.0565000E-02    7.0490576E-05
  1.0600000E-02    6.6507826E-05
  1.0635000E-02    6.2545711E-05
  1.0670000E-02    5.8611506E-05
  1.0705000E-02    5.4722448E-05
  1.0740000E-02    5.0891333E-05
  1.0775000E-02    4.7126756E-05
  1.0810000E-02    4.3438911E-05
  1.0845000E-02    3.9840728E-05
  1.0880000E-02    3.6341888E-05
  1.0915000E-02    3.2946671E-05
  1.0950000E-02    2.9665500E-05
  1.0985000E-02    2.6511083E-05
  1.1020000E-02    2.3486475E-05
  1.1055000E-02    2.0595822E-05
  1.1090000E-02    1.7847598E-05
  1.1125000E-02    1.5242022E-05
  1.1160000E-02    1.2785215E-05
  1.1195000E-02    1.0488402E-05
  1.1230000E-02    8.3439854E-06
  1.1265000E-02    6.3450716E-06
  1.1300000E-02    4.5073380E-06
  1.1335000E-02    2.8281961E-06
  1.1370000E-02    1.2917056E-06
  1.1405000E-02   -9.0973607E-08
  1.1440000E-02   -1.3177964E-06
  1.1475000E-02   -2.4097944E-06
  1.1510000E-02   -3.3635135E-06
  1.1545000E-02   -4.1745543E-06
  1.1580000E-02   -4.8646152E-06
  1.1615000E-02   -5.4363577E-06
  1.1650000E-02   -5.8852761E-06
  1.1685000E-02   -6.2320178E-06
  1.1720000E-02   -6.4831906E-06
  1.1755000E-02   -6.6346893E-06
  1.1790000E-02   -6.7056644E-06
  1.1825000E-02   -6.7054170E-06
  1.1860000E-02   -6.6312823E-06
  1.1895000E-02   -6.5029926E-06
  1.1930000E-02   -6.3343491E-06
  1.1965000E-02   -6.1214550E-06
  1.2000000E-02   -5.8759815E-06
  1.2035000E-02   -5.6120207E-06
  1.2070000E-02   -5.3310887E-06
  1.2105000E-02   -5.0414910E-06
  1.2140000E-02   -4.7550407E-06
  1.2175000E-02   -4.4792823E-06
  1.2210000E-02   -4.2205716E-06
  1.2245000E-02   -3.9802389E-06
  1.2280000E-02   -3.7681616E-06
  1.2315000E-02   -3.5972439E-06
  1.2350000E-02   -3.4580817E-06
  1.2385000E-02   -3.3518797E-06
  1.2420000E-02   -3.3042541E-06
  1.2455000E-02   -3.3120484E-06
  1.2490000E-02   -3.3600425E-06
  1.2525000E-02   -3.4629670E-06
  1.2560000E-02   -3.6242238E-06
  1.2595000E-02   -3.8326598E-06
  1.2630000E-02   -4.1005824E-06
  1.2665000E-02   -4.4289905E-06
  1.2700000E-02   -4.8014517E-06
  1.2735000E-02   -5.2254300E-06
  1.2770000E-02   -5.7046618E-06
  1.2805000E-02   -6.2241011E-06
  1.2840000E-02   -6.7859555E-06
  1.2875000E-02   -7.3895585E-06
  1.2910000E-02   -8.0194159E-06
  1.2945000E-02   -8.6779155E-06
  1.2980000E-02   -9.3658327E-06
  1.3015000E-02   -1.0067209E-05
  1.3050000E-02   -1.0780206E-05
  1.3085000E-02   -1.1503635E-05
  1.3120000E-02   -1.2223149E-05
  1.3155000E-02   -1.2935788E-05
  1.3190000E-02   -1.3635823E-05
  1.3225000E-02   -1.4308534E-05
  1.3260000E-02   -1.4957453E-05
  1.3295000E-02   -1.5579322E-05
  1.3330000E-02   -1.6151396E-05
  1.3365000E-02   -1.6673379E-05
  1.3400000E-02   -1.7148854E-05
  1.3435000E-02   -1.7555756E-05
  1.3470000E-02   -1.7889162E-05
  1.3505000E-02   -1.8159082E-05
  1.3540000E-02   -1.8348452E-05
  1.3575000E-02   -1.8442523E-05
  1.3610000E-02   -1.8449244E-05
  1.3645000E-02   -1.8362834E-05
  1.3680000E-02   -1.8168677E-05
  1.3715000E-02   -1.7868451E-05
  1.3750000E-02   -1.7460492E-05
  1.3785000E-02   -1.6933596E-05
  1.3820000E-02   -1.6288222E-05
  1.3855000E-02   -1.5526379E-05
  1.3890000E-02   -1.4638484E-05
  1.3925000E-02   -1.3623073E-05
  1.3960000E-02   -1.2487213E-05
  1.3995000E-02   -1.1223706E-05
  1.4030000E-02   -9.8255596E-06
  1.4065000E-02   -8.3037849E-06
  1.4100000E-02   -6.6608336E-06
  1.4135000E-02   -4.8878278E-06
  1.4170000E-02   -2.9938694E-06
  1.4205000E-02   -9.8845908E-07
  1.4240000E-02    1.1366558E-06
  1.4275000E-02    3.3769209E-06
  1.4310000E-02    5.7182283E-06
  1.4345000E-02    8.1608769E-06
  1.4380000E-02    1.0698811E-05
  1.4415000E-02    1.3317746E-05
  1.4450000E-02    1.6015465E-05
  1.4485000E-02    1.8783374E-05
  1.4520000E-02    2.1605732E-05
  1.4555000E-02    2.4481606E-05
  1.4590000E-02    2.7401766E-05
  1.4625000E-02    3.0343019E-05
  1.4660000E-02    3.3299824E-05
  1.4695000E-02    3.6266345E-05
  1.4730000E-02    3.9217495E-05
  1.4765000E-02    4.2140789E-05
  1.4800000E-02    4.5034645E-05
  1.4835000E-02    4.7880578E-05
  1.4870000E-02    5.0657934E-05
  1.4905000E-02    5.3357355E-05
  1.4940000E-02    5.5965513E-05
  1.4975000E-02    5.8462603E-05
  1.5010000E-02    6.0834176E-05
  1.5045000E-02    6.3071282E-05
  1.5080000E-02    6.5159184E-05
  1.5115000E-02    6.7080335E-05
  1.5150000E-02    6.8828143E-05
  1.5185000E-02    7.0392394E-05
  1.5220000E-02    7.1748858E-05
  1.5255000E-02    7.2889379E-05
  1.5290000E-02    7.3816540E-05
  1.5325000E-02    7.4511299E-05
  1.5360000E-02    7.4960633E-05
  1.5395000E-02    7.5171156E-05
  1.5430000E-02    7.5130418E-05
  1.5465000E-02    7.4824558E-05
  1.5500000E-02    7.4263313E-05
  1.5535000E-02    7.3443080E-05
  1.5570000E-02    7.2353789E-05
  1.5605000E-02    7.1007446E-05
  1.5640000E-02    6.9403541E-05
  1.5675001E-02    6.7532492E-05
  1.5710000E-02    6.5412816E-05
  1.5745001E-02    6.3055355E-05
  1.5780000E-02    6.0450762E-05
  1.5814999E-02    5.7614681E-05
  1.5850000E-02    5.4567776E-05
  1.5884999E-02    5.1307052E-05
  1.5920000E-02    4.7842932E-05
  1.5954999E-02    4.4200955E-05
  1.5990000E-02    4.0390423E-05
  1.6024999E-02    3.6419304E-05
  1.6060000E-02    3.2307609E-05
  1.6094999E-02    2.8072889E-05
  1.6130000E-02    2.3730305E-05
  1.6164999E-02    1.9296387E-05
  1.6200000E-02    1.4787639E-05
  1.6235000E-02    1.0223546E-05
  1.6270000E-02    5.6207487E-06
  1.6305000E-02    9.9168801E-07
  1.6340001E-02   -3.6435990E-06
  1.6375000E-02   -8.2638062E-06
  1.6410001E-02   -1.2858469E-05
  1.6445000E-02   -1.7415163E-05
  1.6480001E-02   -2.1910742E-05
  1.6515000E-02   -2.6327545E-05
  1.6550001E-02   -3.0660616E-05
  1.6585000E-02   -3.4900073E-05
  1.6620001E-02   -3.9025283E-05
  1.6655000E-02   -4.3024127E-05
  1.6690001E-02   -4.6894569E-05
  1.6725000E-02   -5.0624480E-05
  1.6759999E-02   -5.4197921E-05
  1.6795000E-02   -5.7612378E-05
  1.6829999E-02   -6.0866932E-05
  1.6865000E-02   -6.3951629E-05
  1.6899999E-02   -6.6859815E-05
  1.6935000E-02   -6.9591930E-05
  1.6969999E-02   -7.2145522E-05
  1.7005000E-02   -7.4515126E-05
  1.7039999E-02   -7.6701595E-05
  1.7075000E-02   -7.8710364E-05
  1.7109999E-02   -8.0538295E-05
  1.7145000E-02   -8.2179875E-05
  1.7180000E-02   -8.3645253E-05
  1.7215000E-02   -8.4945270E-05
  1.7250000E-02   -8.6075015E-05
  1.7285001E-02   -8.7035114E-05
  1.7320000E-02   -8.7837012E-05
  1.7355001E-02   -8.8484005E-05
  1.7390000E-02   -8.8979308E-05
  1.7425001E-02   -8.9333349E-05
  1.7460000E-02   -8.9550638E-05
  1.7495001E-02   -8.9636123E-05
  1.7530000E-02   -8.9601257E-05
  1.7565001E-02   -8.9450143E-05
  1.7600000E-02   -8.9184941E-05
  1.7635001E-02   -8.8816545E-05
  1.7670000E-02   -8.8354347E-05
  1.7704999E-02   -8.7803193E-05
  1.7740000E-02   -8.7169632E-05
  1.7774999E-02   -8.6462293E-05
  1.7810000E-02   -8.5689069E-05
  1.7844999E-02   -8.4851941E-05
  1.7880000E-02   -8.3954415E-05
  1.7914999E-02   -8.3011677E-05
  1.7950000E-02   -8.2031038E-05
  1.7984999E-02   -8.1006554E-05
  1.8020000E-02   -7.9947087E-05
  1.8054999E-02   -7.8867946E-05
  1.8090000E-02   -7.7766446E-05
  1.8124999E-02   -7.6641278E-05
  1.8160000E-02   -7.5502314E-05
  1.8195000E-02   -7.4354670E-05
  1.8230001E-02   -7.3202551E-05
  1.8265000E-02   -7.2049334E-05
  1.8300001E-02   -7.0893562E-05
  1.8335000E-02   -6.9741538E-05
  1.8370001E-02   -6.8597292E-05
  1.8405000E-02   -6.7454384E-05
  1.8440001E-02   -6.6319895E-05
  1.8475000E-02   -6.5203203E-05
  1.8510001E-02   -6.4093903E-05
  1.8545000E-02   -6.2991814E-05
  1.8580001E-02   -6.1910112E-05
  1.8615000E-02   -6.0842925E-05
  1.8650001E-02   -5.9783386E-05
  1.8685000E-02   -5.8739504E-05
  1.8719999E-02   -5.7710571E-05
  1.8755000E-02   -5.6693749E-05
  1.8789999E-02   -5.5693399E-05
  1.8825000E-02   -5.4704415E-05
  1.8859999E-02   -5.3723947E-05
  1.8895000E-02   -5.2758762E-05
  1.8929999E-02   -5.1804527E-05
  1.8965000E-02   -5.0856521E-05
  1.8999999E-02   -4.9920647E-05
  1.9035000E-02   -4.8994068E-05
  1.9069999E-02   -4.8072725E-05
  1.9105000E-02   -4.7161669E-05
  1.9140000E-02   -4.6256835E-05
  1.9175000E-02   -4.5353525E-05
  1.9210000E-02   -4.4458357E-05
  1.9245001E-02   -4.3569042E-05
  1.9280000E-02   -4.2680513E-05
  1.9315001E-02   -4.1799980E-05
  1.9350000E-02   -4.0925366E-05
  1.9385001E-02   -4.0048344E-05
  1.9420000E-02   -3.9176477E-05
  1.9455001E-02   -3.8313559E-05
  1.9490000E-02   -3.7451409E-05
  1.9525001E-02   -3.6593021E-05
  1.9560000E-02   -3.5742964E-05
  1.9595001E-02   -3.4894649E-05
  1.9630000E-02   -3.4049728E-05
  1.9664999E-02   -3.3214583E-05
  1.9700000E-02   -3.2384422E-05
  1.9734999E-02   -3.1557756E-05
  1.9770000E-02   -3.0740339E-05
  1.9804999E-02   -2.9931460E-05
  1.9840000E-02   -2.9131190E-05
  1.9874999E-02   -2.8343287E-05
  1.9910000E-02   -2.7563479E-05
  1.9944999E-02   -2.6789552E-05
  1.9980000E-02   -2.6028374E-05
  2.0014999E-02   -2.5278085E-05
  2.0050000E-02   -2.4533070E-05
  2.0085000E-02   -2.3801111E-05
  2.0120000E-02   -2.3085391E-05
  2.0155000E-02   -2.2375429E-05
  2.0190001E-02   -2.1672176E-05
  2.0225000E-02   -2.0984367E-05
  2.0260001E-02   -2.0305248E-05
  2.0295000E-02   -1.9629455E-05
  2.0330001E-02   -1.8967314E-05
  2.0365000E-02   -1.8318940E-05
  2.0400001E-02   -1.7672306E-05
  2.0435000E-02   -1.7030861E-05
  2.0470001E-02   -1.6403095E-05
  2.0505000E-02   -1.5780210E-05
  2.0540001E-02   -1.5156726E-05
  2.0575000E-02   -1.4541638E-05
  2.0609999E-02   -1.3932752E-05
  2.0645000E-02   -1.3321310E-05
  2.0679999E-02   -1.2715619E-05
  2.0715000E-02   -1.2118979E-05
  2.0749999E-02   -1.1517101E-05
  2.0785000E-02   -1.0912769E-05
  2.0819999E-02   -1.0319976E-05
  2.0855000E-02   -9.7289339E-06
  2.0889999E-02   -9.1315342E-06
  2.0925000E-02   -8.5411548E-06
  2.0959999E-02   -7.9563988E-06
  2.0995000E-02   -7.3658080E-06
  2.1029999E-02   -6.7786941E-06
  2.1065000E-02   -6.2006002E-06
  2.1100000E-02   -5.6235026E-06
  2.1135001E-02   -5.0525209E-06
  2.1170000E-02   -4.4905451E-06
  2.1205001E-02   -3.9288429E-06
  2.1240000E-02   -3.3746644E-06
  2.1275001E-02   -2.8355778E-06
  2.1310000E-02   -2.3020186E-06
  2.1345001E-02   -1.7795697E-06
  2.1380000E-02   -1.2798010E-06
  2.1415001E-02   -7.8970754E-07
  2.1450000E-02   -3.0518248E-07
  2.1485001E-02    1.5698437E-07
  2.1520000E-02    5.9907546E-07
  2.1555001E-02    1.0315376E-06
  2.1590000E-02    1.4442435E-06
  2.1624999E-02    1.8298605E-06
  2.1660000E-02    2.1955505E-06
  2.1694999E-02    2.5438178E-06
  2.1730000E-02    2.8715265E-06
  2.1764999E-02    3.1766581E-06
  2.1800000E-02    3.4594045E-06
  2.1834999E-02    3.7233315E-06
  2.1870000E-02    3.9676311E-06
  2.1904999E-02    4.1873336E-06
  2.1940000E-02    4.3851901E-06
  2.1974999E-02    4.5659535E-06
  2.2010000E-02    4.7283656E-06
  2.2045000E-02    4.8729667E-06
  2.2080000E-02    5.0016070E-06
  2.2115000E-02    5.1140282E-06
  2.2150001E-02    5.2129762E-06
  2.2185000E-02    5.3003700E-06
  2.2220001E-02    5.3744293E-06
  2.2255000E-02    5.4385314E-06
  2.2290001E-02    5.4982593E-06
  2.2325000E-02    5.5527471E-06
  2.2360001E-02    5.6014637E-06
  2.2395000E-02    5.6483359E-06
  2.2430001E-02    5.6942799E-06
  2.2465000E-02    5.7380876E-06
  2.2500001E-02    5.7838201E-06
  2.2535000E-02    5.8363939E-06
  2.2569999E-02    5.8930300E-06
  2.2605000E-02    5.9518284E-06
  2.2639999E-02    6.0206062E-06
  2.2675000E-02    6.1014962E-06
  2.2709999E-02    6.1855708E-06
  2.2745000E-02    6.2748550E-06
  2.2779999E-02    6.3789053E-06
  2.2815000E-02    6.4931587E-06
  2.2849999E-02    6.6135194E-06
  2.2885000E-02    6.7475712E-06
  2.2919999E-02    6.8937452E-06
  2.2955000E-02    7.0455067E-06
  2.2990000E-02    7.2065582E-06
  2.3025000E-02    7.3745036E-06
  2.3060000E-02    7.5432749E-06
  2.3095001E-02    7.7228660E-06
  2.3130000E-02    7.9168012E-06
  2.3165001E-02    8.1085846E-06
  2.3200000E-02    8.2952665E-06
  2.3235001E-02    8.4881131E-06
  2.3270000E-02    8.6809277E-06
  2.3305001E-02    8.8645802E-06
  2.3340000E-02    9.0481935E-06
  2.3375001E-02    9.2335395E-06
  2.3410000E-02    9.4077259E-06
  2.3445001E-02    9.5714931E-06
  2.3480000E-02    9.7319044E-06
  2.3514999E-02    9.8797482E-06
  2.3550000E-02    1.0009397E-05
  2.3584999E-02    1.0130409E-05
  2.3620000E-02    1.0241835E-05
  2.3654999E-02    1.0333545E-05
  2.3690000E-02    1.0408638E-05
  2.3724999E-02    1.0472360E-05
  2.3760000E-02    1.0520297E-05
  2.3794999E-02    1.0550878E-05
  2.3830000E-02    1.0565915E-05
  2.3864999E-02    1.0564984E-05
  2.3900000E-02    1.0549878E-05
  2.3934999E-02    1.0520799E-05
  2.3970000E-02    1.0476369E-05
  2.4005000E-02    1.0421706E-05
  2.4040001E-02    1.0358868E-05
  2.4075000E-02    1.0282123E-05
  2.4110001E-02    1.0193047E-05
  2.4145000E-02    1.0098947E-05
  2.4180001E-02    1.0001228E-05
  2.4215000E-02    9.8992441E-06
  2.4250001E-02    9.7935454E-06
  2.4285000E-02    9.6860949E-06
  2.4320001E-02    9.5805008E-06
  2.4355000E-02    9.4747775E-06
  2.4390001E-02    9.3678591E-06
  2.4425000E-02    9.2693454E-06
  2.4460001E-02    9.1820002E-06
  2.4495000E-02    9.0984713E-06
  2.4529999E-02    9.0224221E-06
  2.4565000E-02    8.9589666E-06
  2.4599999E-02    8.9019195E-06
  2.4635000E-02    8.8528413E-06
  2.4669999E-02    8.8194483E-06
  2.4705000E-02    8.7991011E-06
  2.4739999E-02    8.7900535E-06
  2.4775000E-02    8.7948320E-06
  2.4809999E-02    8.8101915E-06
  2.4845000E-02    8.8353981E-06
  2.4879999E-02    8.8722700E-06
  2.4915000E-02    8.9167233E-06
  2.4950000E-02    8.9697369E-06
  2.4985000E-02    9.0359345E-06
  2.5020000E-02    9.1098191E-06
  2.5055001E-02    9.1875127E-06
  2.5090000E-02    9.2738883E-06
  2.5125001E-02    9.3678236E-06
  2.5160000E-02    9.4629777E-06
  2.5195001E-02    9.5571186E-06
  2.5230000E-02    9.6504373E-06
  2.5265001E-02    9.7442826E-06
  2.5300000E-02    9.8388909E-06
  2.5335001E-02    9.9330700E-06
  2.5370000E-02    1.0027905E-05
  2.5405001E-02    1.0119466E-05
  2.5440000E-02    1.0200362E-05
  2.5474999E-02    1.0274010E-05
  2.5510000E-02    1.0343738E-05
  2.5544999E-02    1.0405060E-05
  2.5580000E-02    1.0463650E-05
  2.5614999E-02    1.0522975E-05
  2.5650000E-02    1.0569094E-05
  2.5684999E-02    1.0602884E-05
  2.5720000E-02    1.0637761E-05
  2.5754999E-02    1.0663639E-05
  2.5790000E-02    1.0674188E-05
  2.5824999E-02    1.0686551E-05
  2.5860000E-02    1.0697778E-05
  2.5895000E-02    1.0693891E-05
  2.5930000E-02    1.0688381E-05
  2.5965000E-02    1.0686665E-05
  2.6000001E-02    1.0671523E-05
  2.6035000E-02    1.0648271E-05
  2.6070001E-02    1.0630684E-05
  2.6105000E-02    1.0607583E-05
  2.6140001E-02    1.0574944E-05
  2.6175000E-02    1.0544853E-05
  2.6210001E-02    1.0513702E-05
  2.6245000E-02    1.0475150E-05
  2.6280001E-02    1.0436109E-05
  2.6315000E-02    1.0395303E-05
  2.6350001E-02    1.0346959E-05
  2.6385000E-02    1.0296285E-05
  2.6419999E-02    1.0244619E-05
  2.6455000E-02    1.0187757E-05
  2.6489999E-02    1.0128139E-05
  2.6525000E-02    1.0063719E-05
  2.6559999E-02    9.9879617E-06
  2.6595000E-02    9.9056670E-06
  2.6629999E-02    9.8208538E-06
  2.6665000E-02    9.7275115E-06
  2.6699999E-02    9.6264175E-06
  2.6735000E-02    9.5210798E-06
  2.6769999E-02    9.4054058E-06
  2.6805000E-02    9.2778000E-06
  2.6839999E-02    9.1424608E-06
  2.6875000E-02    8.9969044E-06
  2.6910000E-02    8.8419356E-06
  2.6945001E-02    8.6817063E-06
  2.6980000E-02    8.5098682E-06