 -4.8000002E-03    1.0000000E-24
 -4.7650002E-03    1.0000000E-24
 -4.7300002E-03    1.0000002E-24
 -4.6950001E-03    1.0000002E-24
 -4.6600001E-03    1.0000002E-24
 -4.6250001E-03    1.0000000E-24
 -4.5900000E-03    1.0000000E-24
 -4.5550000E-03    1.0000003E-24
 -4.5200000E-03    1.0000002E-24
 -4.4849999E-03    1.0000000E-24
 -4.4499999E-03    1.0000002E-24
 -4.4149999E-03    1.0000002E-24
 -4.3799998E-03    1.0000000E-24
 -4.3449998E-03    1.0000001E-24
 -4.3100002E-03    1.0000002E-24
 -4.2750002E-03    1.0000002E-24
 -4.2400002E-03    1.0000001E-24
 -4.2050001E-03    1.0000000E-24
 -4.1700001E-03    9.9999982E-25
 -4.1350001E-03    1.0000001E-24
 -4.1000000E-03    1.0000006E-24
 -4.0650000E-03    1.0000004E-24
 -4.0300000E-03    9.9999982E-25
 -3.9949999E-03    9.9999972E-25
 -3.9599999E-03    1.0000002E-24
 -3.9249999E-03    1.0000003E-24
 -3.8900001E-03    1.0000001E-24
 -3.8550000E-03    1.0000001E-24
 -3.8200000E-03    1.0000000E-24
 -3.7849999E-03    1.0000002E-24
 -3.7499999E-03    1.0000001E-24
 -3.7150001E-03    1.0000001E-24
 -3.6800001E-03    1.0000007E-24
 -3.6450000E-03    1.0000007E-24
 -3.6100000E-03    9.9999953E-25
 -3.5750000E-03    9.9999864E-25
 -3.5399999E-03    1.0000043E-24
 -3.5049999E-03    1.0000006E-24
 -3.4700001E-03    9.9997320E-25
 -3.4350001E-03    1.0000421E-24
 -3.4000000E-03    1.0000565E-24
 -3.3650000E-03    9.9977322E-25
 -3.3300000E-03    1.0002387E-24
 -3.2949999E-03    9.9975143E-25
 -3.2599999E-03    9.9906364E-25
 -3.2250001E-03    1.0089311E-24
 -3.1900001E-03    9.8702178E-25
 -3.1550000E-03    9.5081898E-25
 -3.1200000E-03    1.1600406E-24
 -3.0850000E-03    1.0881377E-24
 -3.0499999E-03    4.7079592E-26
 -3.0149999E-03    1.5571930E-24
 -2.9800001E-03    4.7709937E-24
 -2.9450001E-03   -4.6245756E-24
 -2.9100000E-03   -9.4136578E-24
 -2.8750000E-03    2.9319571E-23
 -2.8400000E-03    1.9184919E-23
 -2.8049999E-03   -1.0203565E-22
 -2.7699999E-03   -5.9068741E-24
 -2.7350001E-03    3.0164690E-22
 -2.7000001E-03   -6.7524436E-23
 -2.6650000E-03   -7.5557941E-22
 -2.6300000E-03    2.0879350E-22
 -2.5950000E-03    1.8075649E-21
 -2.5599999E-03   -4.8140521E-23
 -2.5249999E-03   -4.5975615E-21
 -2.4900001E-03   -1.8761757E-21
 -2.4550001E-03    1.3078148E-20
 -2.4200000E-03    9.1988591E-21
 -2.3850000E-03   -3.8768724E-20
 -2.3500000E-03   -2.8211328E-20
 -2.3149999E-03    1.0951848E-19
 -2.2799999E-03    6.6994599E-20
 -2.2450001E-03   -2.8112532E-19
 -2.2100001E-03   -1.3609837E-19
 -2.1750000E-03    6.4712190E-19
 -2.1400000E-03    2.6673780E-19
 -2.1050000E-03   -1.3400906E-18
 -2.0699999E-03   -5.8581774E-19
 -2.0349999E-03    2.5252366E-18
 -2.0000001E-03    1.5120338E-18
 -1.9650001E-03   -4.4045085E-18
 -1.9300000E-03   -4.1374817E-18
 -1.8950000E-03    7.2595778E-18
 -1.8600000E-03    1.0808698E-17
 -1.8250000E-03   -1.1511184E-17
 -1.7900000E-03   -2.5825145E-17
 -1.7550000E-03    1.7589706E-17
 -1.7199999E-03    5.6098357E-17
 -1.6850000E-03   -2.5066112E-17
 -1.6500000E-03   -1.1164518E-16
 -1.6150000E-03    3.0088493E-17
 -1.5800000E-03    2.0589844E-16
 -1.5450000E-03   -1.9986168E-17
 -1.5100000E-03   -3.5573751E-16
 -1.4750001E-03   -3.5737756E-17
 -1.4400000E-03    5.8038073E-16
 -1.4050000E-03    1.9783810E-16
 -1.3700000E-03   -8.9640713E-16
 -1.3350000E-03   -5.7174422E-16
 -1.3000000E-03    1.3032535E-15
 -1.2650000E-03    1.3211569E-15
 -1.2300001E-03   -1.7507056E-15
 -1.1950000E-03   -2.6755943E-15
 -1.1600000E-03    2.0799802E-15
 -1.1250000E-03    4.9215680E-15
 -1.0900000E-03   -1.9367887E-15
 -1.0550000E-03   -8.3602033E-15
 -1.0200000E-03    6.6904877E-16
 -9.8500005E-04    1.3211067E-14
 -9.5000002E-04    2.7643160E-15
 -9.1499998E-04   -1.9446626E-14
 -8.8000001E-04   -9.8470206E-15
 -8.4499997E-04    2.6544462E-14
 -8.1000000E-04    2.2504634E-14
 -7.7500002E-04   -3.3129868E-14
 -7.3999999E-04   -4.3013702E-14
 -7.0500001E-04    3.6469735E-14
 -6.6999998E-04    7.3708089E-14
 -6.3500000E-04   -3.1838308E-14
 -6.0000003E-04   -1.1630239E-13
 -5.6499999E-04    1.1922410E-14
 -5.3000002E-04    1.7073303E-13
 -4.9499999E-04    3.3499702E-14
 -4.6000001E-04   -2.3359358E-13
 -4.2500001E-04   -1.1756369E-13
 -3.9000000E-04    2.9610841E-13
 -3.5500000E-04    2.5607451E-13
 -3.1999999E-04   -3.4097229E-13
 -2.8499999E-04   -4.6625811E-13
 -2.5000001E-04    3.3730698E-13
 -2.1499999E-04    7.6210690E-13
 -1.8000000E-04   -2.3503730E-13
 -1.4500000E-04   -1.1438686E-12
 -1.1000000E-04   -3.6819045E-14
 -7.5000004E-05    1.5830012E-12
 -3.9999999E-05    5.6388954E-13
 -4.9999999E-06   -2.0079281E-12
  2.9999999E-05   -1.4340749E-12
  6.5000000E-05    2.2920368E-12
  9.9999997E-05    2.7228378E-12
  1.3499999E-04   -2.2358098E-12
  1.7000000E-04   -4.4662208E-12
  2.0500000E-04    1.5409617E-12
  2.3999999E-04    6.5960896E-12
  2.7500000E-04    1.9189007E-13
  3.1000000E-04   -8.8334513E-12
  3.4500001E-04   -3.3874858E-12
  3.8000001E-04    1.0596056E-11
  4.1499999E-04    8.3334433E-12
  4.4999999E-04   -1.0996455E-11
  4.8500000E-04   -1.5004359E-11
  5.2000000E-04    8.9237975E-12
  5.5499998E-04    2.2928411E-11
  5.9000001E-04   -3.1285543E-12
  6.2499999E-04   -3.1011634E-11
  6.6000002E-04   -7.6440304E-12
  6.9500000E-04    3.7223506E-11
  7.3000003E-04    2.4199955E-11
  7.6500000E-04   -3.8378422E-11
  7.9999998E-04   -4.5977812E-11
  8.3500001E-04    3.0571774E-11
  8.6999999E-04    7.0141018E-11
  9.0500002E-04   -1.0473667E-11
  9.4000000E-04   -9.1524101E-11
  9.7499997E-04   -2.3232532E-11
  1.0100000E-03    1.0357862E-10
  1.0450000E-03    6.9192568E-11
  1.0800000E-03   -9.9370727E-11
  1.1150000E-03   -1.2322866E-10
  1.1500000E-03    7.2038486E-11
  1.1849999E-03    1.7743629E-10
  1.2200000E-03   -1.6036077E-11
  1.2550000E-03   -2.1882784E-10
  1.2900000E-03   -6.9139132E-11
  1.3250000E-03    2.3057922E-10
  1.3600000E-03    1.7449570E-10
  1.3950000E-03   -1.9792573E-10
  1.4299999E-03   -2.8143909E-10
  1.4650000E-03    1.1497416E-10
  1.5000000E-03    3.6762238E-10
  1.5350000E-03    1.3953502E-11
  1.5700000E-03   -4.1267545E-10
  1.6050000E-03   -1.7779431E-10
  1.6400000E-03    3.9807035E-10
  1.6749999E-03    3.5859346E-10
  1.7100000E-03   -3.0652472E-10
  1.7450000E-03   -5.2557519E-10
  1.7800000E-03    1.3094062E-10
  1.8150000E-03    6.3542560E-10
  1.8500000E-03    1.1130687E-10
  1.8850000E-03   -6.4837569E-10
  1.9200000E-03   -3.7667258E-10
  1.9550000E-03    5.4861821E-10
  1.9900000E-03    6.1274291E-10
  2.0250001E-03   -3.4885067E-10
  2.0600001E-03   -7.7771889E-10
  2.0949999E-03    7.7905161E-11
  2.1299999E-03    8.4474722E-10
  2.1650000E-03    2.3016243E-10
  2.2000000E-03   -7.9577567E-10
  2.2350000E-03   -5.3404520E-10
  2.2700001E-03    6.2250943E-10
  2.3050001E-03    7.7981704E-10
  2.3399999E-03   -3.4121012E-10
  2.3749999E-03   -9.1153107E-10
  2.4100000E-03    5.1616732E-12
  2.4450000E-03    9.0206070E-10
  2.4800000E-03    3.1240363E-10
  2.5150001E-03   -7.7439172E-10
  2.5500001E-03   -5.6228255E-10
  2.5849999E-03    5.7770344E-10
  2.6199999E-03    7.3991102E-10
  2.6550000E-03   -3.4060943E-10
  2.6900000E-03   -8.5306423E-10
  2.7250000E-03    6.4190979E-11
  2.7600001E-03    8.8375479E-10
  2.7950001E-03    2.3921995E-10
  2.8299999E-03   -7.9659163E-10
  2.8649999E-03   -5.1340726E-10
  2.9000000E-03    5.8927740E-10
  2.9350000E-03    6.8012018E-10
  2.9700000E-03   -3.3108552E-10
  3.0050001E-03   -7.1908224E-10
  3.0400001E-03    1.0187976E-10
  3.0749999E-03    6.7536915E-10
  3.1099999E-03    7.8474234E-11
  3.1450000E-03   -5.7019578E-10
  3.1800000E-03   -1.7366687E-10
  3.2150000E-03    4.7029686E-10
  3.2500001E-03    2.0391608E-10
  3.2850001E-03   -4.4120954E-10
  3.3199999E-03   -2.9748395E-10
  3.3549999E-03    3.3040151E-10
  3.3900000E-03    2.9553018E-10
  3.4250000E-03   -2.8279626E-10
  3.4600000E-03   -2.6215377E-10
  3.4950001E-03    4.3036744E-10
  3.5300001E-03    6.2394212E-10
  3.5649999E-03   -5.4667798E-11
  3.5999999E-03   -4.8866844E-10
  3.6350000E-03    7.3010764E-11
  3.6700000E-03    6.9511980E-10
  3.7050000E-03    1.4409857E-10
  3.7400001E-03   -1.1713133E-09
  3.7750001E-03   -1.7412798E-09
  3.8099999E-03   -1.2674634E-09
  3.8449999E-03   -1.2629311E-09
  3.8800000E-03   -2.8262799E-09
  3.9149998E-03   -4.8558499E-09
  3.9499998E-03   -5.6837908E-09
  3.9849998E-03   -5.8223542E-09
  4.0199999E-03   -7.3340840E-09
  4.0549999E-03   -1.0597579E-08
  4.0899999E-03   -1.3798418E-08
  4.1250000E-03   -1.6146684E-08
  4.1600000E-03   -1.9418783E-08
  4.1950000E-03   -2.5186326E-08
  4.2300001E-03   -3.2524749E-08
  4.2650001E-03   -4.0025729E-08
  4.3000001E-03   -4.8413629E-08
  4.3350002E-03   -5.9418603E-08
  4.3700002E-03   -7.3293513E-08
  4.4049998E-03   -8.9109854E-08
  4.4399998E-03   -1.0674172E-07
  4.4749998E-03   -1.2734338E-07
  4.5099999E-03   -1.5236481E-07
  4.5449999E-03   -1.8269797E-07
  4.5799999E-03   -2.1838598E-07
  4.6150000E-03   -2.5931689E-07
  4.6500000E-03   -3.0685914E-07
  4.6850001E-03   -3.6405507E-07
  4.7200001E-03   -4.3307824E-07
  4.7550001E-03   -5.1365481E-07
  4.7900002E-03   -6.0572575E-07
  4.8250002E-03   -7.1242403E-07
  4.8600002E-03   -8.3816872E-07
  4.8949998E-03   -9.8498253E-07
  4.9299998E-03   -1.1533893E-06
  4.9649999E-03   -1.3461810E-06
  4.9999999E-03   -1.5686938E-06
  5.0349999E-03   -1.8259943E-06
  5.0700000E-03   -2.1221622E-06
  5.1050000E-03   -2.4618741E-06
  5.1400000E-03   -2.8510970E-06
  5.1750001E-03   -3.2971693E-06
  5.2100001E-03   -3.8091027E-06
  5.2450001E-03   -4.3961004E-06
  5.2800002E-03   -5.0654835E-06
  5.3150002E-03   -5.8249552E-06
  5.3500002E-03   -6.6871908E-06
  5.3849998E-03   -7.6683773E-06
  5.4199998E-03   -8.7818371E-06
  5.4549999E-03   -1.0038211E-05
  5.4899999E-03   -1.1453271E-05
  5.5249999E-03   -1.3049947E-05
  5.5600000E-03   -1.4850954E-05
  5.5950000E-03   -1.6875700E-05
  5.6300000E-03   -1.9146690E-05
  5.6650001E-03   -2.1692884E-05
  5.7000001E-03   -2.4545125E-05
  5.7350001E-03   -2.7734322E-05
  5.7700002E-03   -3.1294749E-05
  5.8050002E-03   -3.5263696E-05
  5.8400002E-03   -3.9678991E-05
  5.8749998E-03   -4.4582273E-05
  5.9099998E-03   -5.0022576E-05
  5.9449999E-03   -5.6051536E-05
  5.9799999E-03   -6.2718464E-05
  6.0149999E-03   -7.0076196E-05
  6.0500000E-03   -7.8187913E-05
  6.0850000E-03   -8.7122367E-05
  6.1200000E-03   -9.6946285E-05
  6.1550001E-03   -1.0772781E-04
  6.1900001E-03   -1.1954356E-04
  6.2250001E-03   -1.3247666E-04
  6.2600002E-03   -1.4661202E-04
  6.2950002E-03   -1.6203635E-04
  6.3299998E-03   -1.7883963E-04
  6.3649998E-03   -1.9711665E-04
  6.3999998E-03   -2.1696946E-04
  6.4349999E-03   -2.3850409E-04
  6.4699999E-03   -2.6182312E-04
  6.5049999E-03   -2.8702969E-04
  6.5400000E-03   -3.1423839E-04
  6.5750000E-03   -3.4357185E-04
  6.6100000E-03   -3.7514535E-04
  6.6450001E-03   -4.0906831E-04
  6.6800001E-03   -4.4545834E-04
  6.7150001E-03   -4.8444112E-04
  6.7500002E-03   -5.2613753E-04
  6.7850002E-03   -5.7066156E-04
  6.8199998E-03   -6.1812781E-04
  6.8549998E-03   -6.6865102E-04
  6.8899998E-03   -7.2234101E-04
  6.9249999E-03   -7.7930547E-04
  6.9599999E-03   -8.3965011E-04
  6.9949999E-03   -9.0346765E-04
  7.0300000E-03   -9.7083743E-04
  7.0650000E-03   -1.0418403E-03
  7.1000000E-03   -1.1165531E-03
  7.1350001E-03   -1.1950294E-03
  7.1700001E-03   -1.2773073E-03
  7.2050001E-03   -1.3634257E-03
  7.2400002E-03   -1.4534099E-03
  7.2750002E-03   -1.5472516E-03
  7.3099998E-03   -1.6449268E-03
  7.3449998E-03   -1.7464120E-03
  7.3799998E-03   -1.8516622E-03
  7.4149999E-03   -1.9605947E-03
  7.4499999E-03   -2.0731031E-03
  7.4850000E-03   -2.1890705E-03
  7.5200000E-03   -2.3083584E-03
  7.5550000E-03   -2.4307922E-03
  7.5900001E-03   -2.5561715E-03
  7.6250001E-03   -2.6842770E-03
  7.6600001E-03   -2.8148522E-03
  7.6950002E-03   -2.9476066E-03
  7.7300002E-03   -3.0822356E-03
  7.7650002E-03   -3.2184061E-03
  7.7999998E-03   -3.3557401E-03
  7.8349998E-03   -3.4938315E-03
  7.8699999E-03   -3.6322579E-03
  7.9049999E-03   -3.7705607E-03
  7.9399999E-03   -3.9082468E-03
  7.9750000E-03   -4.0448038E-03
  8.0100000E-03   -4.1796970E-03
  8.0450000E-03   -4.3123509E-03
  8.0800001E-03   -4.4421698E-03
  8.1150001E-03   -4.5685512E-03
  8.1500001E-03   -4.6908660E-03
  8.1850002E-03   -4.8084529E-03
  8.2200002E-03   -4.9206386E-03
  8.2550002E-03   -5.0267545E-03
  8.2900003E-03   -5.1261187E-03
  8.3250003E-03   -5.2180230E-03
  8.3600003E-03   -5.3017582E-03
  8.3950004E-03   -5.3766370E-03
  8.4300004E-03   -5.4419683E-03
  8.4650004E-03   -5.4970519E-03
  8.5000005E-03   -5.5412101E-03
  8.5349996E-03   -5.5737919E-03
  8.5699996E-03   -5.5941553E-03
  8.6049996E-03   -5.6016766E-03
  8.6399997E-03   -5.5957739E-03
  8.6749997E-03   -5.5759004E-03
  8.7099997E-03   -5.5415421E-03
  8.7449998E-03   -5.4922164E-03
  8.7799998E-03   -5.4274979E-03
  8.8149998E-03   -5.3470270E-03
  8.8499999E-03   -5.2504926E-03
  8.8849999E-03   -5.1376275E-03
  8.9199999E-03   -5.0082328E-03
  8.9550000E-03   -4.8621907E-03
  8.9900000E-03   -4.6994505E-03
  9.0250000E-03   -4.5200270E-03
  9.0600001E-03   -4.3240101E-03
  9.0950001E-03   -4.1115745E-03
  9.1300001E-03   -3.8829835E-03
  9.1650002E-03   -3.6385772E-03
  9.2000002E-03   -3.3787712E-03
  9.2350002E-03   -3.1040709E-03
  9.2700003E-03   -2.8150689E-03
  9.3050003E-03   -2.5124343E-03
  9.3400003E-03   -2.1969278E-03
  9.3750004E-03   -1.8693983E-03
  9.4100004E-03   -1.5307588E-03
  9.4450004E-03   -1.1819919E-03
  9.4799995E-03   -8.2416611E-04
  9.5149996E-03   -4.5843192E-04
  9.5499996E-03   -8.6004657E-05
  9.5849996E-03    2.9185505E-04
  9.6199997E-03    6.7384331E-04
  9.6549997E-03    1.0585915E-03
  9.6899997E-03    1.4446734E-03
  9.7249998E-03    1.8306362E-03
  9.7599998E-03    2.2150078E-03
  9.7949998E-03    2.5962945E-03
  9.8299999E-03    2.9729903E-03
  9.8649999E-03    3.3435696E-03
  9.8999999E-03    3.7065041E-03
  9.9350000E-03    4.0603052E-03
  9.9700000E-03    4.4035148E-03
  1.0005000E-02    4.7346731E-03
  1.0040000E-02    5.0523449E-03
  1.0075000E-02    5.3551700E-03
  1.0110000E-02    5.6418651E-03
  1.0145000E-02    5.9111980E-03
  1.0180000E-02    6.1619813E-03
  1.0215000E-02    6.3931174E-03
  1.0250000E-02    6.6036205E-03
  1.0285000E-02    6.7925993E-03
  1.0320000E-02    6.9592493E-03
  1.0355000E-02    7.1028755E-03
  1.0390000E-02    7.2229053E-03
  1.0425000E-02    7.3188781E-03
  1.0460000E-02    7.3904619E-03
  1.0495000E-02    7.4374587E-03
  1.0530000E-02    7.4597914E-03
  1.0565000E-02    7.4575031E-03
  1.0600000E-02    7.4307751E-03
  1.0635000E-02    7.3799319E-03
  1.0670000E-02    7.3054228E-03
  1.0705000E-02    7.2078155E-03
  1.0740000E-02    7.0877993E-03
  1.0775000E-02    6.9461972E-03
  1.0810000E-02    6.7839571E-03
  1.0845000E-02    6.6021285E-03
  1.0880000E-02    6.4018574E-03
  1.0915000E-02    6.1843959E-03
  1.0950000E-02    5.9510912E-03
  1.0985000E-02    5.7033668E-03
  1.1020000E-02    5.4427097E-03
  1.1055000E-02    5.1706727E-03
  1.1090000E-02    4.8888768E-03
  1.1125000E-02    4.5989868E-03
  1.1160000E-02    4.3026758E-03
  1.1195000E-02    4.0016291E-03
  1.1230000E-02    3.6975555E-03
  1.1265000E-02    3.3921795E-03
  1.1300000E-02    3.0871965E-03
  1.1335000E-02    2.7842510E-03
  1.1370000E-02    2.4849554E-03
  1.1405000E-02    2.1908956E-03
  1.1440000E-02    1.9035946E-03
  1.1475000E-02    1.6244889E-03
  1.1510000E-02    1.3549338E-03
  1.1545000E-02    1.0962012E-03
  1.1580000E-02    8.4947253E-04
  1.1615000E-02    6.1582524E-04
  1.1650000E-02    3.9620930E-04
  1.1685000E-02    1.9145588E-04
  1.1720000E-02    2.2891616E-06
  1.1755000E-02   -1.7069584E-04
  1.1790000E-02   -3.2704193E-04
  1.1825000E-02   -4.6642040E-04
  1.1860000E-02   -5.8863871E-04
  1.1895000E-02   -6.9363095E-04
  1.1930000E-02   -7.8144541E-04
  1.1965000E-02   -8.5227570E-04
  1.2000000E-02   -9.0646266E-04
  1.2035000E-02   -9.4444567E-04
  1.2070000E-02   -9.6675917E-04
  1.2105000E-02   -9.7406260E-04
  1.2140000E-02   -9.6712291E-04
  1.2175000E-02   -9.4678975E-04
  1.2210000E-02   -9.1400096E-04
  1.2245000E-02   -8.6977525E-04
  1.2280000E-02   -8.1519072E-04
  1.2315000E-02   -7.5137097E-04
  1.2350000E-02   -6.7948457E-04
  1.2385000E-02   -6.0074189E-04
  1.2420000E-02   -5.1637727E-04
  1.2455000E-02   -4.2762628E-04
  1.2490000E-02   -3.3571772E-04
  1.2525000E-02   -2.4187031E-04
  1.2560000E-02   -1.4728263E-04
  1.2595000E-02   -5.3119118E-05
  1.2630000E-02    3.9502120E-05
  1.2665000E-02    1.2951426E-04
  1.2700000E-02    2.1591150E-04
  1.2735000E-02    2.9776653E-04
  1.2770000E-02    3.7423018E-04
  1.2805000E-02    4.4452897E-04
  1.2840000E-02    5.0798571E-04
  1.2875000E-02    5.6402647E-04
  1.2910000E-02    6.1216875E-04
  1.2945000E-02    6.5202953E-04
  1.2980000E-02    6.8333035E-04
  1.3015000E-02    7.0589117E-04
  1.3050000E-02    7.1964401E-04
  1.3085000E-02    7.2463078E-04
  1.3120000E-02    7.2097767E-04
  1.3155000E-02    7.0890354E-04
  1.3190000E-02    6.8873347E-04
  1.3225000E-02    6.6087442E-04
  1.3260000E-02    6.2580564E-04
  1.3295000E-02    5.8408774E-04
  1.3330000E-02    5.3634454E-04
  1.3365000E-02    4.8324766E-04
  1.3400000E-02    4.2552763E-04
  1.3435000E-02    3.6396497E-04
  1.3470000E-02    2.9935781E-04
  1.3505000E-02    2.3251177E-04
  1.3540000E-02    1.6425227E-04
  1.3575000E-02    9.5420342E-05
  1.3610000E-02    2.6846146E-05
  1.3645000E-02   -4.0664363E-05
  1.3680000E-02   -1.0633082E-04
  1.3715000E-02   -1.6941395E-04
  1.3750000E-02   -2.2922107E-04
  1.3785000E-02   -2.8509312E-04
  1.3820000E-02   -3.3641947E-04
  1.3855000E-02   -3.8267099E-04
  1.3890000E-02   -4.2339720E-04
  1.3925000E-02   -4.5820704E-04
  1.3960000E-02   -4.8677690E-04
  1.3995000E-02   -5.0887029E-04
  1.4030000E-02   -5.2433595E-04
  1.4065000E-02   -5.3309905E-04
  1.4100000E-02   -5.3517026E-04
  1.4135000E-02   -5.3064531E-04
  1.4170000E-02   -5.1968120E-04
  1.4205000E-02   -5.0250161E-04
  1.4240000E-02   -4.7942498E-04
  1.4275000E-02   -4.5084607E-04
  1.4310000E-02   -4.1720274E-04
  1.4345000E-02   -3.7897998E-04
  1.4380000E-02   -3.3671380E-04
  1.4415000E-02   -2.9098504E-04
  1.4450000E-02   -2.4242204E-04
  1.4485000E-02   -1.9167995E-04
  1.4520000E-02   -1.3941148E-04
  1.4555000E-02   -8.6275395E-05
  1.4590000E-02   -3.2948359E-05
  1.4625000E-02    1.9893603E-05
  1.4660000E-02    7.1598493E-05
  1.4695000E-02    1.2154807E-04
  1.4730000E-02    1.6915028E-04
  1.4765000E-02    2.1383334E-04
  1.4800000E-02    2.5506876E-04
  1.4835000E-02    2.9239271E-04
  1.4870000E-02    3.2539584E-04
  1.4905000E-02    3.5372065E-04
  1.4940000E-02    3.7707531E-04
  1.4975000E-02    3.9523499E-04
  1.5010000E-02    4.0803791E-04
  1.5045000E-02    4.1539222E-04
  1.5080000E-02    4.1728205E-04
  1.5115000E-02    4.1375781E-04
  1.5150000E-02    4.0492706E-04
  1.5185000E-02    3.9097009E-04
  1.5220000E-02    3.7214594E-04
  1.5255000E-02    3.4876083E-04
  1.5290000E-02    3.2115835E-04
  1.5325000E-02    2.8974551E-04
  1.5360000E-02    2.5498343E-04
  1.5395000E-02    2.1735941E-04
  1.5430000E-02    1.7739275E-04
  1.5465000E-02    1.3563136E-04
  1.5500000E-02    9.2630355E-05
  1.5535000E-02    4.8958598E-05
  1.5570000E-02    5.2006480E-06
  1.5605000E-02   -3.8072587E-05
  1.5640000E-02   -8.0314996E-05
  1.5675001E-02   -1.2099452E-04
  1.5710000E-02   -1.5959842E-04
  1.5745001E-02   -1.9564660E-04
  1.5780000E-02   -2.2869441E-04
  1.5814999E-02   -2.5833779E-04
  1.5850000E-02   -2.8422961E-04
  1.5884999E-02   -3.0608711E-04
  1.5920000E-02   -3.2367706E-04
  1.5954999E-02   -3.3680757E-04
  1.5990000E-02   -3.4534675E-04
  1.6024999E-02   -3.4923613E-04
  1.6060000E-02   -3.4848385E-04
  1.6094999E-02   -3.4315666E-04
  1.6130000E-02   -3.3337544E-04
  1.6164999E-02   -3.1931413E-04
  1.6200000E-02   -3.0120267E-04
  1.6235000E-02   -2.7932515E-04
  1.6270000E-02   -2.5401585E-04
  1.6305000E-02   -2.2565325E-04
  1.6340001E-02   -1.9464408E-04
  1.6375000E-02   -1.6142137E-04
  1.6410001E-02   -1.2645641E-04
  1.6445000E-02   -9.0243600E-05
  1.6480001E-02   -5.3276937E-05
  1.6515000E-02   -1.6054608E-05
  1.6550001E-02    2.0920948E-05
  1.6585000E-02    5.7160501E-05
  1.6620001E-02    9.2186354E-05
  1.6655000E-02    1.2552895E-04
  1.6690001E-02    1.5675242E-04
  1.6725000E-02    1.8546883E-04
  1.6759999E-02    2.1132198E-04
  1.6795000E-02    2.3398534E-04
  1.6829999E-02    2.5317844E-04
  1.6865000E-02    2.6867073E-04
  1.6899999E-02    2.8028741E-04
  1.6935000E-02    2.8792056E-04
  1.6969999E-02    2.9150973E-04
  1.7005000E-02    2.9102640E-04
  1.7039999E-02    2.8650605E-04
  1.7075000E-02    2.7806591E-04
  1.7109999E-02    2.6586975E-04
  1.7145000E-02    2.5010903E-04
  1.7180000E-02    2.3101910E-04
  1.7215000E-02    2.0888665E-04
  1.7250000E-02    1.8404907E-04
  1.7285001E-02    1.5688560E-04
  1.7320000E-02    1.2779198E-04
  1.7355001E-02    9.7175835E-05
  1.7390000E-02    6.5470718E-05
  1.7425001E-02    3.3126726E-05
  1.7460000E-02    5.9561910E-07
  1.7495001E-02   -3.1669526E-05
  1.7530000E-02   -6.3223284E-05
  1.7565001E-02   -9.3636867E-05
  1.7600000E-02   -1.2249649E-04
  1.7635001E-02   -1.4941349E-04
  1.7670000E-02   -1.7403311E-04
  1.7704999E-02   -1.9602694E-04
  1.7740000E-02   -2.1510270E-04
  1.7774999E-02   -2.3102466E-04
  1.7810000E-02   -2.4360526E-04
  1.7844999E-02   -2.5269118E-04
  1.7880000E-02   -2.5817816E-04
  1.7914999E-02   -2.6002224E-04
  1.7950000E-02   -2.5822828E-04
  1.7984999E-02   -2.5284785E-04
  1.8020000E-02   -2.4398856E-04
  1.8054999E-02   -2.3180940E-04
  1.8090000E-02   -2.1650900E-04
  1.8124999E-02   -1.9832491E-04
  1.8160000E-02   -1.7753574E-04
  1.8195000E-02   -1.5445903E-04
  1.8230001E-02   -1.2944471E-04
  1.8265000E-02   -1.0286349E-04
  1.8300001E-02   -7.5101569E-05
  1.8335000E-02   -4.6561356E-05
  1.8370001E-02   -1.7655237E-05
  1.8405000E-02    1.1201321E-05
  1.8440001E-02    3.9593975E-05
  1.8475000E-02    6.7120927E-05
  1.8510001E-02    9.3401039E-05
  1.8545000E-02    1.1807035E-04
  1.8580001E-02    1.4078563E-04
  1.8615000E-02    1.6123566E-04
  1.8650001E-02    1.7914796E-04
  1.8685000E-02    1.9429231E-04
  1.8719999E-02    2.0647699E-04
  1.8755000E-02    2.1554143E-04
  1.8789999E-02    2.2136974E-04
  1.8825000E-02    2.2391080E-04
  1.8859999E-02    2.2316798E-04
  1.8895000E-02    2.1917764E-04
  1.8929999E-02    2.1201315E-04
  1.8965000E-02    2.0179848E-04
  1.8999999E-02    1.8870665E-04
  1.9035000E-02    1.7295132E-04
  1.9069999E-02    1.5478174E-04
  1.9105000E-02    1.3447847E-04
  1.9140000E-02    1.1235042E-04
  1.9175000E-02    8.8729343E-05
  1.9210000E-02    6.3964268E-05
  1.9245001E-02    3.8424463E-05
  1.9280000E-02    1.2495464E-05
  1.9315001E-02   -1.3444213E-05
  1.9350000E-02   -3.9030696E-05
  1.9385001E-02   -6.3898013E-05
  1.9420000E-02   -8.7681568E-05
  1.9455001E-02   -1.1003829E-04
  1.9490000E-02   -1.3064979E-04
  1.9525001E-02   -1.4922749E-04
  1.9560000E-02   -1.6552376E-04
  1.9595001E-02   -1.7931963E-04
  1.9630000E-02   -1.9041938E-04
  1.9664999E-02   -1.9867622E-04
  1.9700000E-02   -2.0399573E-04
  1.9734999E-02   -2.0631438E-04
  1.9770000E-02   -2.0560666E-04
  1.9804999E-02   -2.0190529E-04
  1.9840000E-02   -1.9529102E-04
  1.9874999E-02   -1.8587806E-04
  1.9910000E-02   -1.7381748E-04
  1.9944999E-02   -1.5929686E-04
  1.9980000E-02   -1.4253831E-04
  2.0014999E-02   -1.2380476E-04
  2.0050000E-02   -1.0339078E-04
  2.0085000E-02   -8.1604463E-05
  2.0120000E-02   -5.8773225E-05
  2.0155000E-02   -3.5246525E-05
  2.0190001E-02   -1.1374070E-05
  2.0225000E-02    1.2495960E-05
  2.0260001E-02    3.6006015E-05
  2.0295000E-02    5.8807283E-05
  2.0330001E-02    8.0568861E-05
  2.0365000E-02    1.0096679E-04
  2.0400001E-02    1.1970144E-04
  2.0435000E-02    1.3651098E-04
  2.0470001E-02    1.5115332E-04
  2.0505000E-02    1.6341514E-04
  2.0540001E-02    1.7313080E-04
  2.0575000E-02    1.8016710E-04
  2.0609999E-02    1.8442766E-04
  2.0645000E-02    1.8587090E-04
  2.0679999E-02    1.8448777E-04
  2.0715000E-02    1.8029714E-04
  2.0749999E-02    1.7338045E-04
  2.0785000E-02    1.6387372E-04
  2.0819999E-02    1.5193557E-04
  2.0855000E-02    1.3775376E-04
  2.0889999E-02    1.2154990E-04
  2.0925000E-02    1.0356696E-04
  2.0959999E-02    8.4081155E-05
  2.0995000E-02    6.3410975E-05
  2.1029999E-02    4.1887892E-05
  2.1065000E-02    1.9835252E-05
  2.1100000E-02   -2.4170845E-06
  2.1135001E-02   -2.4529496E-05
  2.1170000E-02   -4.6171652E-05
  2.1205001E-02   -6.7020570E-05
  2.1240000E-02   -8.6755055E-05
  2.1275001E-02   -1.0508208E-04
  2.1310000E-02   -1.2174539E-04
  2.1345001E-02   -1.3650108E-04
  2.1380000E-02   -1.4912534E-04
  2.1415001E-02   -1.5943870E-04
  2.1450000E-02   -1.6730056E-04
  2.1485001E-02   -1.7261076E-04
  2.1520000E-02   -1.7531513E-04
  2.1555001E-02   -1.7538530E-04
  2.1590000E-02   -1.7282333E-04
  2.1624999E-02   -1.6768863E-04
  2.1660000E-02   -1.6008236E-04
  2.1694999E-02   -1.5013073E-04
  2.1730000E-02   -1.3800382E-04
  2.1764999E-02   -1.2390957E-04
  2.1800000E-02   -1.0807098E-04
  2.1834999E-02   -9.0735346E-05
  2.1870000E-02   -7.2178256E-05
  2.1904999E-02   -5.2689353E-05
  2.1940000E-02   -3.2575332E-05
  2.1974999E-02   -1.2156715E-05
  2.2010000E-02    8.2551360E-06
  2.2045000E-02    2.8357506E-05
  2.2080000E-02    4.7843656E-05
  2.2115000E-02    6.6417764E-05
  2.2150001E-02    8.3805950E-05
  2.2185000E-02    9.9744131E-05
  2.2220001E-02    1.1398913E-04
  2.2255000E-02    1.2634309E-04
  2.2290001E-02    1.3663655E-04
  2.2325000E-02    1.4471094E-04
  2.2360001E-02    1.5044851E-04
  2.2395000E-02    1.5378557E-04
  2.2430001E-02    1.5468629E-04
  2.2465000E-02    1.5314462E-04
  2.2500001E-02    1.4920061E-04
  2.2535000E-02    1.4292551E-04
  2.2569999E-02    1.3441878E-04
  2.2605000E-02    1.2382618E-04
  2.2639999E-02    1.1132985E-04
  2.2675000E-02    9.7130935E-05
  2.2709999E-02    8.1453240E-05
  2.2745000E-02    6.4541047E-05
  2.2779999E-02    4.6655852E-05
  2.2815000E-02    2.8084485E-05
  2.2849999E-02    9.1290904E-06
  2.2885000E-02   -9.9149192E-06
  2.2919999E-02   -2.8760960E-05
  2.2955000E-02   -4.7124726E-05
  2.2990000E-02   -6.4720909E-05
  2.3025000E-02   -8.1262457E-05
  2.3060000E-02   -9.6479765E-05
  2.3095001E-02   -1.1014440E-04
  2.3130000E-02   -1.2205904E-04
  2.3165001E-02   -1.3203925E-04
  2.3200000E-02   -1.3992406E-04
  2.3235001E-02   -1.4558791E-04
  2.3270000E-02   -1.4893869E-04
  2.3305001E-02   -1.4992517E-04
  2.3340000E-02   -1.4854183E-04
  2.3375001E-02   -1.4481565E-04
  2.3410000E-02   -1.3880155E-04
  2.3445001E-02   -1.3058996E-04
  2.3480000E-02   -1.2030817E-04
  2.3514999E-02   -1.0812231E-04
  2.3550000E-02   -9.4235584E-05
  2.3584999E-02   -7.8871890E-05
  2.3620000E-02   -6.2271843E-05
  2.3654999E-02   -4.4700799E-05
  2.3690000E-02   -2.6438680E-05
  2.3724999E-02   -7.7742634E-06
  2.3760000E-02    1.0983395E-05
  2.3794999E-02    2.9518975E-05
  2.3830000E-02    4.7536356E-05
  2.3864999E-02    6.4749926E-05
  2.3900000E-02    8.0875281E-05
  2.3934999E-02    9.5646552E-05
  2.3970000E-02    1.0882146E-04
  2.4005000E-02    1.2017515E-04
  2.4040001E-02    1.2951372E-04
  2.4075000E-02    1.3668559E-04
  2.4110001E-02    1.4157486E-04
  2.4145000E-02    1.4409982E-04
  2.4180001E-02    1.4421293E-04
  2.4215000E-02    1.4189893E-04
  2.4250001E-02    1.3719038E-04
  2.4285000E-02    1.3017553E-04
  2.4320001E-02    1.2097349E-04
  2.4355000E-02    1.0972697E-04
  2.4390001E-02    9.6623386E-05
  2.4425000E-02    8.1883896E-05
  2.4460001E-02    6.5742250E-05
  2.4495000E-02    4.8466427E-05
  2.4529999E-02    3.0365689E-05
  2.4565000E-02    1.1751403E-05
  2.4599999E-02   -7.0754872E-06
  2.4635000E-02   -2.5804462E-05
  2.4669999E-02   -4.4117358E-05
  2.4705000E-02   -6.1701110E-05
  2.4739999E-02   -7.8254961E-05
  2.4775000E-02   -9.3501294E-05
  2.4809999E-02   -1.0718471E-04
  2.4845000E-02   -1.1906810E-04
  2.4879999E-02   -1.2894692E-04
  2.4915000E-02   -1.3665669E-04
  2.4950000E-02   -1.4207007E-04
  2.4985000E-02   -1.4510514E-04
  2.5020000E-02   -1.4572233E-04
  2.5055001E-02   -1.4390984E-04
  2.5090000E-02   -1.3969443E-04
  2.5125001E-02   -1.3315577E-04
  2.5160000E-02   -1.2441691E-04
  2.5195001E-02   -1.1363871E-04
  2.5230000E-02   -1.0102182E-04
  2.5265001E-02   -8.6793698E-05
  2.5300000E-02   -7.1197923E-05
  2.5335001E-02   -5.4502241E-05
  2.5370000E-02   -3.7004364E-05
  2.5405001E-02   -1.9020703E-05
  2.5440000E-02   -8.7053814E-07
  2.5474999E-02    1.7130116E-05
  2.5510000E-02    3.4668945E-05
  2.5544999E-02    5.1444342E-05
  2.5580000E-02    6.7173183E-05
  2.5614999E-02    8.1587554E-05
  2.5650000E-02    9.4433897E-05
  2.5684999E-02    1.0548999E-04
  2.5720000E-02    1.1457919E-04
  2.5754999E-02    1.2156067E-04
  2.5790000E-02    1.2632085E-04
  2.5824999E-02    1.2878608E-04
  2.5860000E-02    1.2892748E-04
  2.5895000E-02    1.2675549E-04
  2.5930000E-02    1.2233126E-04
  2.5965000E-02    1.1576528E-04
  2.6000001E-02    1.0718641E-04
  2.6035000E-02    9.6743111E-05
  2.6070001E-02    8.4630636E-05
  2.6105000E-02    7.1081173E-05
  2.6140001E-02    5.6349087E-05
  2.6175000E-02    4.0718267E-05
  2.6210001E-02    2.4481113E-05
  2.6245000E-02    7.9155307E-06
  2.6280001E-02   -8.6928840E-06
  2.6315000E-02   -2.5043588E-05
  2.6350001E-02   -4.0845585E-05
  2.6385000E-02   -5.5818415E-05
  2.6419999E-02   -6.9693466E-05
  2.6455000E-02   -8.2237457E-05
  2.6489999E-02   -9.3248724E-05
  2.6525000E-02   -1.0254270E-04
  2.6559999E-02   -1.0996755E-04
  2.6595000E-02   -1.1540994E-04
  2.6629999E-02   -1.1878319E-04
  2.6665000E-02   -1.2004074E-04
  2.6699999E-02   -1.1918756E-04
  2.6735000E-02   -1.1626173E-04
  2.6769999E-02   -1.1133126E-04
  2.6805000E-02   -1.0450506E-04
  2.6839999E-02   -9.5917989E-05
  2.6875000E-02   -8.5729473E-05
  2.6910000E-02   -7.4148644E-05
  2.6945001E-02   -6.1412669E-05
  2.6980000E-02   -4.7744361E-05