 -4.8000002E-03    1.0000000E-24
 -4.7650002E-03    1.0000002E-24
 -4.7300002E-03    1.0000001E-24
 -4.6950001E-03    1.0000000E-24
 -4.6600001E-03    1.0000003E-24
 -4.6250001E-03    1.0000002E-24
 -4.5900000E-03    1.0000000E-24
 -4.5550000E-03    1.0000002E-24
 -4.5200000E-03    9.9999992E-25
 -4.4849999E-03    1.0000000E-24
 -4.4499999E-03    1.0000002E-24
 -4.4149999E-03    1.0000002E-24
 -4.3799998E-03    9.9999963E-25
 -4.3449998E-03    1.0000000E-24
 -4.3100002E-03    1.0000007E-24
 -4.2750002E-03    1.0000001E-24
 -4.2400002E-03    9.9999982E-25
 -4.2050001E-03    1.0000006E-24
 -4.1700001E-03    1.0000005E-24
 -4.1350001E-03    9.9999953E-25
 -4.1000000E-03    9.9999963E-25
 -4.0650000E-03    1.0000003E-24
 -4.0300000E-03    1.0000001E-24
 -3.9949999E-03    9.9999972E-25
 -3.9599999E-03    1.0000004E-24
 -3.9249999E-03    1.0000005E-24
 -3.8900001E-03    9.9999972E-25
 -3.8550000E-03    9.9999982E-25
 -3.8200000E-03    1.0000005E-24
 -3.7849999E-03    1.0000002E-24
 -3.7499999E-03    9.9999972E-25
 -3.7150001E-03    1.0000004E-24
 -3.6800001E-03    1.0000007E-24
 -3.6450000E-03    9.9999972E-25
 -3.6100000E-03    9.9999953E-25
 -3.5750000E-03    1.0000000E-24
 -3.5399999E-03    9.9999992E-25
 -3.5049999E-03    9.9999992E-25
 -3.4700001E-03    1.0000007E-24
 -3.4350001E-03    1.0000005E-24
 -3.4000000E-03    9.9999992E-25
 -3.3650000E-03    9.9999992E-25
 -3.3300000E-03    1.0000001E-24
 -3.2949999E-03    9.9999972E-25
 -3.2599999E-03    9.9999992E-25
 -3.2250001E-03    1.0000005E-24
 -3.1900001E-03    1.0000006E-24
 -3.1550000E-03    9.9999982E-25
 -3.1200000E-03    9.9999982E-25
 -3.0850000E-03    1.0000004E-24
 -3.0499999E-03    1.0000005E-24
 -3.0149999E-03    9.9999963E-25
 -2.9800001E-03    1.0000001E-24
 -2.9450001E-03    1.0000016E-24
 -2.9100000E-03    9.9999874E-25
 -2.8750000E-03    9.9999884E-25
 -2.8400000E-03    1.0000095E-24
 -2.8049999E-03    9.9998661E-25
 -2.7699999E-03    9.9997261E-25
 -2.7350001E-03    1.0001165E-24
 -2.7000001E-03    9.9997044E-25
 -2.6650000E-03    9.9947779E-25
 -2.6300000E-03    1.0007813E-24
 -2.5950000E-03    1.0013812E-24
 -2.5599999E-03    9.9528174E-25
 -2.5249999E-03    9.9934438E-25
 -2.4900001E-03    1.0182480E-24
 -2.4550001E-03    9.8562106E-25
 -2.4200000E-03    9.5094727E-25
 -2.3850000E-03    1.0879269E-24
 -2.3500000E-03    1.0782239E-24
 -2.3149999E-03    6.7938718E-25
 -2.2799999E-03    1.0348154E-24
 -2.2450001E-03    1.8298209E-24
 -2.2100001E-03    2.6133966E-25
 -2.1750000E-03   -4.4835792E-25
 -2.1400000E-03    3.9028321E-24
 -2.1050000E-03    1.8668086E-24
 -2.0699999E-03   -6.1473307E-24
 -2.0349999E-03    5.7240205E-24
 -2.0000001E-03    1.1831891E-23
 -1.9650001E-03   -2.0814327E-23
 -1.9300000E-03    1.2002920E-26
 -1.8950000E-03    5.4388387E-23
 -1.8600000E-03   -5.4347285E-23
 -1.8250000E-03   -7.6255927E-23
 -1.7900000E-03    2.1277596E-22
 -1.7550000E-03    2.9289161E-24
 -1.7199999E-03   -5.0391783E-22
 -1.6850000E-03    3.8753987E-22
 -1.6500000E-03    8.3594376E-22
 -1.6150000E-03   -1.4229480E-21
 -1.5800000E-03   -7.3690988E-22
 -1.5450000E-03    3.3827699E-21
 -1.5100000E-03   -8.8980966E-22
 -1.4750001E-03   -5.9256424E-21
 -1.4400000E-03    5.9014147E-21
 -1.4050000E-03    7.1446086E-21
 -1.3700000E-03   -1.6431688E-20
 -1.3350000E-03   -2.3239904E-21
 -1.3000000E-03    3.3561202E-20
 -1.2650000E-03   -1.6853374E-20
 -1.2300001E-03   -5.5104814E-20
 -1.1950000E-03    6.1888755E-20
 -1.1600000E-03    7.3643444E-20
 -1.1250000E-03   -1.4513780E-19
 -1.0900000E-03   -7.6683313E-20
 -1.0550000E-03    2.7623128E-19
 -1.0200000E-03    5.1449248E-20
 -9.8500005E-04   -4.5908436E-19
 -9.5000002E-04    4.3642970E-21
 -9.1499998E-04    6.9202359E-19
 -8.8000001E-04   -6.6291172E-20
 -8.4499997E-04   -9.7121096E-19
 -8.1000000E-04    6.3431008E-20
 -7.7500002E-04    1.2927417E-18
 -7.3999999E-04    1.4348089E-19
 -7.0500001E-04   -1.6421656E-18
 -6.6999998E-04   -7.8844499E-19
 -6.3500000E-04    1.9558400E-18
 -6.0000003E-04    2.2365119E-18
 -5.6499999E-04   -2.0371705E-18
 -5.3000002E-04   -5.0318861E-18
 -4.9499999E-04    1.4119161E-18
 -4.6000001E-04    9.9447169E-18
 -4.2500001E-04    8.9564077E-19
 -3.9000000E-04   -1.7975559E-17
 -3.5500000E-04   -6.6872565E-18
 -3.1999999E-04    3.0241359E-17
 -2.8499999E-04    1.9033302E-17
 -2.5000001E-04   -4.7626608E-17
 -2.1499999E-04   -4.2814448E-17
 -1.8000000E-04    7.0041631E-17
 -1.4500000E-04    8.5257731E-17
 -1.1000000E-04   -9.5079792E-17
 -7.5000004E-05   -1.5621631E-16
 -3.9999999E-05    1.1583156E-16
 -4.9999999E-06    2.6775310E-16
  2.9999999E-05   -1.1764933E-16
  6.5000000E-05   -4.3233356E-16
  9.9999997E-05    7.3892600E-17
  1.3499999E-04    6.5865425E-16
  1.7000000E-04    5.8775504E-17
  2.0500000E-04   -9.4381821E-16
  2.3999999E-04   -3.4400602E-16
  2.7500000E-04    1.2604664E-15
  3.1000000E-04    8.6560197E-16
  3.4500001E-04   -1.5378705E-15
  3.8000001E-04   -1.7195348E-15
  4.1499999E-04    1.6373287E-15
  4.4999999E-04    2.9928920E-15
  4.8500000E-04   -1.3248991E-15
  5.2000000E-04   -4.7235669E-15
  5.5499998E-04    2.4903555E-16
  5.9000001E-04    6.8343158E-15
  6.2499999E-04    2.0628611E-15
  6.6000002E-04   -9.0378297E-15
  6.9500000E-04   -6.1674434E-15
  7.3000003E-04    1.0718008E-14
  7.6500000E-04    1.2601301E-14
  7.9999998E-04   -1.0809364E-14
  8.3500001E-04   -2.1685092E-14
  8.6999999E-04    7.7161551E-15
  9.0500002E-04    3.3221452E-14
  9.4000000E-04    6.6526381E-16
  9.7499997E-04   -4.6094035E-14
  1.0100000E-03   -1.6739489E-14
  1.0450000E-03    5.7809802E-14
  1.0800000E-03    4.2728689E-14
  1.1150000E-03   -6.4089081E-14
  1.1500000E-03   -7.9833303E-14
  1.1849999E-03    5.8691713E-14
  1.2200000E-03    1.2703204E-13
  1.2550000E-03   -3.3743045E-14
  1.2900000E-03   -1.7964783E-13
  1.3250000E-03   -1.9179775E-14
  1.3600000E-03    2.2797728E-13
  1.3950000E-03    1.0701153E-13
  1.4299999E-03   -2.5643482E-13
  1.4650000E-03   -2.3220786E-13
  1.5000000E-03    2.4376529E-13
  1.5350000E-03    3.8899098E-13
  1.5700000E-03   -1.6498943E-13
  1.6050000E-03   -5.5938641E-13
  1.6400000E-03   -4.2982293E-15
  1.6749999E-03    7.1003701E-13
  1.7100000E-03    2.8089285E-13
  1.7450000E-03   -7.9140280E-13
  1.7800000E-03   -6.6456291E-13
  1.8150000E-03    7.4125764E-13
  1.8500000E-03    1.1278851E-12
  1.8850000E-03   -4.9397899E-13
  1.9200000E-03   -1.6082279E-12
  1.9550000E-03   -4.3313970E-15
  1.9900000E-03    2.0050140E-12
  2.0250001E-03    7.7647139E-13
  2.0600001E-03   -2.1847303E-12
  2.0949999E-03   -1.7926043E-12
  2.1299999E-03    1.9962450E-12
  2.1650000E-03    2.9497533E-12
  2.2000000E-03   -1.2997137E-12
  2.2350000E-03   -4.0594346E-12
  2.2700001E-03    9.8765727E-15
  2.3050001E-03    4.8551827E-12
  2.3399999E-03    1.8549713E-12
  2.3749999E-03   -5.0275448E-12
  2.4100000E-03   -4.1343192E-12
  2.4450000E-03    4.2830847E-12
  2.4800000E-03    6.5100820E-12
  2.5150001E-03   -2.4165609E-12
  2.5500001E-03   -8.5188800E-12
  2.5849999E-03   -6.1082910E-13
  2.6199999E-03    9.5971078E-12
  2.6550000E-03    4.5929506E-12
  2.6900000E-03   -9.1730321E-12
  2.7250000E-03   -9.0241261E-12
  2.7600001E-03    6.8105669E-12
  2.7950001E-03    1.3107766E-11
  2.8299999E-03   -2.3807371E-12
  2.8649999E-03   -1.5863061E-11
  2.9000000E-03   -3.7965386E-12
  2.9350000E-03    1.6326994E-11
  2.9700000E-03    1.0903680E-11
  3.0050001E-03   -1.3803444E-11
  3.0400001E-03   -1.7704251E-11
  3.0749999E-03    8.0813143E-12
  3.1099999E-03    2.2717947E-11
  3.1450000E-03    4.0807375E-13
  3.1800000E-03   -2.4456796E-11
  3.2150000E-03   -1.0472237E-11
  3.2500001E-03    2.1781644E-11
  3.2850001E-03    2.0153984E-11
  3.3199999E-03   -1.4423281E-11
  3.3549999E-03   -2.7097106E-11
  3.3900000E-03    3.3908150E-12
  3.4250000E-03    2.9322236E-11
  3.4600000E-03    9.1856011E-12
  3.4950001E-03   -2.5907739E-11
  3.5300001E-03   -2.0698537E-11
  3.5649999E-03    1.7125809E-11
  3.5999999E-03    2.8573368E-11
  3.6350000E-03   -4.3961688E-12
  3.6700000E-03   -3.0593170E-11
  3.7050000E-03   -9.5370266E-12
  3.7400001E-03    2.5705226E-11
  3.7750001E-03    2.0913297E-11
  3.8099999E-03   -1.5054532E-11
  3.8449999E-03   -2.6412450E-11
  3.8800000E-03    1.8487978E-12
  3.9149998E-03    2.4594946E-11
  3.9499998E-03    9.9869210E-12
  3.9849998E-03   -1.6053981E-11
  4.0199999E-03   -1.6776918E-11
  4.0549999E-03    3.2249511E-12
  4.0899999E-03    1.5726460E-11
  4.1250000E-03    9.4765628E-12
  4.1600000E-03   -6.4952202E-12
  4.1950000E-03   -1.6975164E-11
  4.2300001E-03   -7.8891763E-12
  4.2650001E-03    1.6167406E-11
  4.3000001E-03    2.2829497E-11
  4.3350002E-03   -6.3561335E-12
  4.3700002E-03   -3.3601288E-11
  4.4049998E-03   -1.1664202E-11
  4.4399998E-03    3.4340055E-11
  4.4749998E-03    3.3219674E-11
  4.5099999E-03   -2.0308359E-11
  4.5449999E-03   -4.8127825E-11
  4.5799999E-03   -5.4836179E-12
  4.6150000E-03    4.7626000E-11
  4.6500000E-03    3.2863472E-11
  4.6850001E-03   -3.1594581E-11
  4.7200001E-03   -5.3957786E-11
  4.7550001E-03    3.5717809E-12
  4.7900002E-03    6.4539235E-11
  4.8250002E-03    3.4719397E-11
  4.8600002E-03   -5.6380765E-11
  4.8949998E-03   -7.4728924E-11
  4.9299998E-03    2.3075264E-11
  4.9649999E-03    9.7539636E-11
  4.9999999E-03    2.4806483E-11
  5.0349999E-03   -9.2307988E-11
  5.0700000E-03   -6.7303642E-11
  5.1050000E-03    6.6449471E-11
  5.1400000E-03    9.5961489E-11
  5.1750001E-03   -2.8117304E-11
  5.2100001E-03   -1.0856450E-10
  5.2450001E-03   -2.0080149E-11
  5.2800002E-03    9.6262068E-11
  5.3150002E-03    6.5728478E-11
  5.3500002E-03   -5.6783262E-11
  5.3849998E-03   -9.0973028E-11
  5.4199998E-03    2.7352526E-12
  5.4549999E-03    8.7740919E-11
  5.4899999E-03    4.7396875E-11
  5.5249999E-03   -6.4089664E-11
  5.5600000E-03   -8.7553624E-11
  5.5950000E-03    2.6328434E-11
  5.6300000E-03    1.1851509E-10
  5.6650001E-03    3.5040755E-11
  5.7000001E-03   -1.0847239E-10
  5.7350001E-03   -7.4260778E-11
  5.7700002E-03    9.9408641E-11
  5.8050002E-03    1.3066384E-10
  5.8400002E-03   -3.2985944E-11
  5.8749998E-03   -1.0988561E-10
  5.9099998E-03    3.7664229E-11
  5.9449999E-03    1.6916575E-10
  5.9799999E-03    8.5788737E-11
  6.0149999E-03   -4.0722814E-11
  6.0500000E-03    1.3441093E-11
  6.0850000E-03    1.5715905E-10
  6.1200000E-03    1.8966091E-10
  6.1550001E-03    1.3940143E-10
  6.1900001E-03    1.5040824E-10
  6.2250001E-03    2.2704469E-10
  6.2600002E-03    2.9643907E-10
  6.2950002E-03    3.5154876E-10
  6.3299998E-03    4.0657142E-10
  6.3649998E-03    4.7064758E-10
  6.3999998E-03    5.8977062E-10
  6.4349999E-03    7.6444284E-10
  6.4699999E-03    9.0397823E-10
  6.5049999E-03    1.0026137E-09
  6.5400000E-03    1.2002884E-09
  6.5750000E-03    1.5318580E-09
  6.6100000E-03    1.8333343E-09
  6.6450001E-03    2.0514919E-09
  6.6800001E-03    2.3944382E-09
  6.7150001E-03    2.9751279E-09
  6.7500002E-03    3.5861911E-09
  6.7850002E-03    4.0850607E-09
  6.8199998E-03    4.6906217E-09
  6.8549998E-03    5.6032259E-09
  6.8899998E-03    6.6772547E-09
  6.9249999E-03    7.7575724E-09
  6.9599999E-03    8.9701668E-09
  6.9949999E-03    1.0457469E-08
  7.0300000E-03    1.2196866E-08
  7.0650000E-03    1.4199811E-08
  7.1000000E-03    1.6540765E-08
  7.1350001E-03    1.9180991E-08
  7.1700001E-03    2.2084141E-08
  7.2050001E-03    2.5441066E-08
  7.2400002E-03    2.9455375E-08
  7.2750002E-03    3.4021259E-08
  7.3099998E-03    3.9002732E-08
  7.3449998E-03    4.4660677E-08
  7.3799998E-03    5.1341722E-08
  7.4149999E-03    5.8982323E-08
  7.4499999E-03    6.7397018E-08
  7.4850000E-03    7.6801484E-08
  7.5200000E-03    8.7629680E-08
  7.5550000E-03    1.0002074E-07
  7.5900001E-03    1.1384680E-07
  7.6250001E-03    1.2918647E-07
  7.6600001E-03    1.4649160E-07
  7.6950002E-03    1.6613160E-07
  7.7300002E-03    1.8814067E-07
  7.7650002E-03    2.1262787E-07
  7.7999998E-03    2.3994551E-07
  7.8349998E-03    2.7047244E-07
  7.8699999E-03    3.0461695E-07
  7.9049999E-03    3.4272898E-07
  7.9399999E-03    3.8495762E-07
  7.9750000E-03    4.3168703E-07
  8.0100000E-03    4.8368923E-07
  8.0450000E-03    5.4144499E-07
  8.0800001E-03    6.0520466E-07
  8.1150001E-03    6.7555857E-07
  8.1500001E-03    7.5313659E-07
  8.1850002E-03    8.3861642E-07
  8.2200002E-03    9.3298388E-07
  8.2550002E-03    1.0366997E-06
  8.2900003E-03    1.1500512E-06
  8.3250003E-03    1.2744594E-06
  8.3600003E-03    1.4112346E-06
  8.3950004E-03    1.5604492E-06
  8.4300004E-03    1.7228890E-06
  8.4650004E-03    1.9004581E-06
  8.5000005E-03    2.0942462E-06
  8.5349996E-03    2.3048528E-06
  8.5699996E-03    2.5334443E-06
  8.6049996E-03    2.7815072E-06
  8.6399997E-03    3.0507770E-06
  8.6749997E-03    3.3423908E-06
  8.7099997E-03    3.6569363E-06
  8.7449998E-03    3.9964448E-06
  8.7799998E-03    4.3637160E-06
  8.8149998E-03    4.7589533E-06
  8.8499999E-03    5.1827742E-06
  8.8849999E-03    5.6390313E-06
  8.9199999E-03    6.1296473E-06
  8.9550000E-03    6.6542793E-06
  8.9900000E-03    7.2152270E-06
  9.0250000E-03    7.8160174E-06
  9.0600001E-03    8.4576159E-06
  9.0950001E-03    9.1410693E-06
  9.1300001E-03    9.8687087E-06
  9.1650002E-03    1.0642703E-05
  9.2000002E-03    1.1465457E-05
  9.2350002E-03    1.2338324E-05
  9.2700003E-03    1.3262103E-05
  9.3050003E-03    1.4240220E-05
  9.3400003E-03    1.5275358E-05
  9.3750004E-03    1.6366952E-05
  9.4100004E-03    1.7516380E-05
  9.4450004E-03    1.8727806E-05
  9.4799995E-03    2.0001755E-05
  9.5149996E-03    2.1338536E-05
  9.5499996E-03    2.2741206E-05
  9.5849996E-03    2.4210516E-05
  9.6199997E-03    2.5745627E-05
  9.6549997E-03    2.7349215E-05
  9.6899997E-03    2.9023447E-05
  9.7249998E-03    3.0767460E-05
  9.7599998E-03    3.2580785E-05
  9.7949998E-03    3.4464134E-05
  9.8299999E-03    3.6418336E-05
  9.8649999E-03    3.8443184E-05
  9.8999999E-03    4.0536575E-05
  9.9350000E-03    4.2698564E-05
  9.9700000E-03    4.4930373E-05
  1.0005000E-02    4.7228521E-05
  1.0040000E-02    4.9589184E-05
  1.0075000E-02    5.2014500E-05
  1.0110000E-02    5.4502540E-05
  1.0145000E-02    5.7046931E-05
  1.0180000E-02    5.9646467E-05
  1.0215000E-02    6.2301027E-05
  1.0250000E-02    6.5003282E-05
  1.0285000E-02    6.7748355E-05
  1.0320000E-02    7.0537055E-05
  1.0355000E-02    7.3362804E-05
  1.0390000E-02    7.6217693E-05
  1.0425000E-02    7.9100828E-05
  1.0460000E-02    8.2005849E-05
  1.0495000E-02    8.4922518E-05
  1.0530000E-02    8.7848261E-05
  1.0565000E-02    9.0778980E-05
  1.0600000E-02    9.3704752E-05
  1.0635000E-02    9.6619275E-05
  1.0670000E-02    9.9516510E-05
  1.0705000E-02    1.0238648E-04
  1.0740000E-02    1.0522243E-04
  1.0775000E-02    1.0801757E-04
  1.0810000E-02    1.1076208E-04
  1.0845000E-02    1.1344898E-04
  1.0880000E-02    1.1607209E-04
  1.0915000E-02    1.1861969E-04
  1.0950000E-02    1.2108441E-04
  1.0985000E-02    1.2346030E-04
  1.1020000E-02    1.2573539E-04
  1.1055000E-02    1.2790156E-04
  1.1090000E-02    1.2995610E-04
  1.1125000E-02    1.3188747E-04
  1.1160000E-02    1.3368318E-04
  1.1195000E-02    1.3534061E-04
  1.1230000E-02    1.3685472E-04
  1.1265000E-02    1.3821444E-04
  1.1300000E-02    1.3941391E-04
  1.1335000E-02    1.4044867E-04
  1.1370000E-02    1.4131134E-04
  1.1405000E-02    1.4199583E-04
  1.1440000E-02    1.4249806E-04
  1.1475000E-02    1.4281512E-04
  1.1510000E-02    1.4294407E-04
  1.1545000E-02    1.4287839E-04
  1.1580000E-02    1.4261500E-04
  1.1615000E-02    1.4215628E-04
  1.1650000E-02    1.4149929E-04
  1.1685000E-02    1.4064088E-04
  1.1720000E-02    1.3958571E-04
  1.1755000E-02    1.3833329E-04
  1.1790000E-02    1.3688100E-04
  1.1825000E-02    1.3523611E-04
  1.1860000E-02    1.3340266E-04
  1.1895000E-02    1.3137890E-04
  1.1930000E-02    1.2917342E-04
  1.1965000E-02    1.2679501E-04
  1.2000000E-02    1.2424318E-04
  1.2035000E-02    1.2152505E-04
  1.2070000E-02    1.1865154E-04
  1.2105000E-02    1.1562878E-04
  1.2140000E-02    1.1246651E-04
  1.2175000E-02    1.0917497E-04
  1.2210000E-02    1.0576112E-04
  1.2245000E-02    1.0223522E-04
  1.2280000E-02    9.8612305E-05
  1.2315000E-02    9.4901232E-05
  1.2350000E-02    9.1109403E-05
  1.2385000E-02    8.7253546E-05
  1.2420000E-02    8.3346597E-05
  1.2455000E-02    7.9395235E-05
  1.2490000E-02    7.5413911E-05
  1.2525000E-02    7.1420691E-05
  1.2560000E-02    6.7422705E-05
  1.2595000E-02    6.3430256E-05
  1.2630000E-02    5.9461385E-05
  1.2665000E-02    5.5525674E-05
  1.2700000E-02    5.1632498E-05
  1.2735000E-02    4.7797344E-05
  1.2770000E-02    4.4029046E-05
  1.2805000E-02    4.0335901E-05
  1.2840000E-02    3.6735870E-05
  1.2875000E-02    3.3237298E-05
  1.2910000E-02    2.9840061E-05
  1.2945000E-02    2.6558528E-05
  1.2980000E-02    2.3407179E-05
  1.3015000E-02    2.0384619E-05
  1.3050000E-02    1.7496124E-05
  1.3085000E-02    1.4755203E-05
  1.3120000E-02    1.2164182E-05
  1.3155000E-02    9.7237744E-06
  1.3190000E-02    7.4406635E-06
  1.3225000E-02    5.3156764E-06
  1.3260000E-02    3.3488984E-06
  1.3295000E-02    1.5449742E-06
  1.3330000E-02   -9.7825804E-08
  1.3365000E-02   -1.5833825E-06
  1.3400000E-02   -2.9081193E-06
  1.3435000E-02   -4.0740192E-06
  1.3470000E-02   -5.0903368E-06
  1.3505000E-02   -5.9605090E-06
  1.3540000E-02   -6.6849188E-06
  1.3575000E-02   -7.2699140E-06
  1.3610000E-02   -7.7230043E-06
  1.3645000E-02   -8.0489935E-06
  1.3680000E-02   -8.2551351E-06
  1.3715000E-02   -8.3509276E-06
  1.3750000E-02   -8.3426257E-06
  1.3785000E-02   -8.2356737E-06
  1.3820000E-02   -8.0432101E-06
  1.3855000E-02   -7.7771683E-06
  1.3890000E-02   -7.4390250E-06
  1.3925000E-02   -7.0350575E-06
  1.3960000E-02   -6.5825284E-06
  1.3995000E-02   -6.0894981E-06
  1.4030000E-02   -5.5574901E-06
  1.4065000E-02   -5.0012004E-06
  1.4100000E-02   -4.4333519E-06
  1.4135000E-02   -3.8527855E-06
  1.4170000E-02   -3.2663163E-06
  1.4205000E-02   -2.6896139E-06
  1.4240000E-02   -2.1263434E-06
  1.4275000E-02   -1.5785234E-06
  1.4310000E-02   -1.0584243E-06
  1.4345000E-02   -5.7244785E-07
  1.4380000E-02   -1.1907311E-07
  1.4415000E-02    2.9605110E-07
  1.4450000E-02    6.6486979E-07
  1.4485000E-02    9.8835346E-07
  1.4520000E-02    1.2677500E-06
  1.4555000E-02    1.4958580E-06
  1.4590000E-02    1.6687055E-06
  1.4625000E-02    1.7926535E-06
  1.4660000E-02    1.8692264E-06
  1.4695000E-02    1.8918746E-06
  1.4730000E-02    1.8637229E-06
  1.4765000E-02    1.7934634E-06
  1.4800000E-02    1.6778864E-06
  1.4835000E-02    1.5156037E-06
  1.4870000E-02    1.3175609E-06
  1.4905000E-02    1.0879926E-06
  1.4940000E-02    8.2572637E-07
  1.4975000E-02    5.3840921E-07
  1.5010000E-02    2.2972208E-07
  1.5045000E-02   -1.0158087E-07
  1.5080000E-02   -4.4460032E-07
  1.5115000E-02   -7.9007651E-07
  1.5150000E-02   -1.1419462E-06
  1.5185000E-02   -1.4963323E-06
  1.5220000E-02   -1.8413978E-06
  1.5255000E-02   -2.1750723E-06
  1.5290000E-02   -2.4964113E-06
  1.5325000E-02   -2.7991769E-06
  1.5360000E-02   -3.0813712E-06
  1.5395000E-02   -3.3402109E-06
  1.5430000E-02   -3.5689518E-06
  1.5465000E-02   -3.7672955E-06
  1.5500000E-02   -3.9366828E-06
  1.5535000E-02   -4.0718055E-06
  1.5570000E-02   -4.1709122E-06
  1.5605000E-02   -4.2388715E-06
  1.5640000E-02   -4.2758916E-06
  1.5675001E-02   -4.2770930E-06
  1.5710000E-02   -4.2427400E-06
  1.5745001E-02   -4.1797766E-06
  1.5780000E-02   -4.0921782E-06
  1.5814999E-02   -3.9775337E-06
  1.5850000E-02   -3.8374073E-06
  1.5884999E-02   -3.6806546E-06
  1.5920000E-02   -3.5125838E-06
  1.5954999E-02   -3.3335386E-06
  1.5990000E-02   -3.1469501E-06
  1.6024999E-02   -2.9596258E-06
  1.6060000E-02   -2.7779765E-06
  1.6094999E-02   -2.6068842E-06
  1.6130000E-02   -2.4511085E-06
  1.6164999E-02   -2.3180942E-06
  1.6200000E-02   -2.2143975E-06
  1.6235000E-02   -2.1431217E-06
  1.6270000E-02   -2.1098144E-06
  1.6305000E-02   -2.1221654E-06
  1.6340001E-02   -2.1846208E-06
  1.6375000E-02   -2.3010805E-06
  1.6410001E-02   -2.4771332E-06
  1.6445000E-02   -2.7199083E-06
  1.6480001E-02   -3.0356589E-06
  1.6515000E-02   -3.4235229E-06
  1.6550001E-02   -3.8833227E-06
  1.6585000E-02   -4.4260373E-06
  1.6620001E-02   -5.0565659E-06
  1.6655000E-02   -5.7680436E-06
  1.6690001E-02   -6.5641502E-06
  1.6725000E-02   -7.4507725E-06
  1.6759999E-02   -8.4211470E-06
  1.6795000E-02   -9.4768038E-06
  1.6829999E-02   -1.0624182E-05
  1.6865000E-02   -1.1853898E-05
  1.6899999E-02   -1.3161528E-05
  1.6935000E-02   -1.4551678E-05
  1.6969999E-02   -1.6013510E-05
  1.7005000E-02   -1.7539434E-05
  1.7039999E-02   -1.9136498E-05
  1.7075000E-02   -2.0796107E-05
  1.7109999E-02   -2.2502674E-05
  1.7145000E-02   -2.4255423E-05
  1.7180000E-02   -2.6047346E-05
  1.7215000E-02   -2.7864386E-05
  1.7250000E-02   -2.9702691E-05
  1.7285001E-02   -3.1553998E-05
  1.7320000E-02   -3.3404376E-05
  1.7355001E-02   -3.5248246E-05
  1.7390000E-02   -3.7074216E-05
  1.7425001E-02   -3.8864531E-05
  1.7460000E-02   -4.0612460E-05
  1.7495001E-02   -4.2310796E-05
  1.7530000E-02   -4.3943521E-05
  1.7565001E-02   -4.5499688E-05
  1.7600000E-02   -4.6969613E-05
  1.7635001E-02   -4.8338166E-05
  1.7670000E-02   -4.9594521E-05
  1.7704999E-02   -5.0730148E-05
  1.7740000E-02   -5.1732353E-05
  1.7774999E-02   -5.2589694E-05
  1.7810000E-02   -5.3293570E-05
  1.7844999E-02   -5.3833843E-05
  1.7880000E-02   -5.4199285E-05
  1.7914999E-02   -5.4381511E-05
  1.7950000E-02   -5.4376294E-05
  1.7984999E-02   -5.4176769E-05
  1.8020000E-02   -5.3771648E-05
  1.8054999E-02   -5.3155669E-05
  1.8090000E-02   -5.2328141E-05
  1.8124999E-02   -5.1283751E-05
  1.8160000E-02   -5.0019433E-05
  1.8195000E-02   -4.8537022E-05
  1.8230001E-02   -4.6834757E-05
  1.8265000E-02   -4.4911652E-05
  1.8300001E-02   -4.2771899E-05
  1.8335000E-02   -4.0417999E-05
  1.8370001E-02   -3.7853435E-05
  1.8405000E-02   -3.5086821E-05
  1.8440001E-02   -3.2125092E-05
  1.8475000E-02   -2.8974984E-05
  1.8510001E-02   -2.5647329E-05
  1.8545000E-02   -2.2150241E-05
  1.8580001E-02   -1.8491954E-05
  1.8615000E-02   -1.4690352E-05
  1.8650001E-02   -1.0763481E-05
  1.8685000E-02   -6.7188780E-06
  1.8719999E-02   -2.5666345E-06
  1.8755000E-02    1.6705632E-06
  1.8789999E-02    5.9729300E-06
  1.8825000E-02    1.0330338E-05
  1.8859999E-02    1.4725372E-05
  1.8895000E-02    1.9134321E-05
  1.8929999E-02    2.3543891E-05
  1.8965000E-02    2.7940954E-05
  1.8999999E-02    3.2301348E-05
  1.9035000E-02    3.6606434E-05
  1.9069999E-02    4.0843501E-05
  1.9105000E-02    4.4991401E-05
  1.9140000E-02    4.9032344E-05
  1.9175000E-02    5.2957592E-05
  1.9210000E-02    5.6750185E-05
  1.9245001E-02    6.0390521E-05
  1.9280000E-02    6.3868640E-05
  1.9315001E-02    6.7172339E-05
  1.9350000E-02    7.0286143E-05
  1.9385001E-02    7.3202369E-05
  1.9420000E-02    7.5912860E-05
  1.9455001E-02    7.8405123E-05
  1.9490000E-02    8.0672959E-05
  1.9525001E-02    8.2713792E-05
  1.9560000E-02    8.4521074E-05
  1.9595001E-02    8.6088563E-05
  1.9630000E-02    8.7415334E-05
  1.9664999E-02    8.8503126E-05
  1.9700000E-02    8.9348905E-05
  1.9734999E-02    8.9949186E-05
  1.9770000E-02    9.0311791E-05
  1.9804999E-02    9.0444875E-05
  1.9840000E-02    9.0344613E-05
  1.9874999E-02    9.0014706E-05
  1.9910000E-02    8.9468747E-05
  1.9944999E-02    8.8707966E-05
  1.9980000E-02    8.7735141E-05
  2.0014999E-02    8.6568958E-05
  2.0050000E-02    8.5217624E-05
  2.0085000E-02    8.3681400E-05
  2.0120000E-02    8.1977087E-05
  2.0155000E-02    8.0118269E-05
  2.0190001E-02    7.8104822E-05
  2.0225000E-02    7.5948949E-05
  2.0260001E-02    7.3668612E-05
  2.0295000E-02    7.1269729E-05
  2.0330001E-02    6.8762391E-05
  2.0365000E-02    6.6163266E-05
  2.0400001E-02    6.3480577E-05
  2.0435000E-02    6.0721279E-05
  2.0470001E-02    5.7898291E-05
  2.0505000E-02    5.5023123E-05
  2.0540001E-02    5.2104609E-05
  2.0575000E-02    4.9151746E-05
  2.0609999E-02    4.6175956E-05
  2.0645000E-02    4.3187953E-05
  2.0679999E-02    4.0191517E-05
  2.0715000E-02    3.7194313E-05
  2.0749999E-02    3.4211916E-05
  2.0785000E-02    3.1248150E-05
  2.0819999E-02    2.8303111E-05
  2.0855000E-02    2.5393038E-05
  2.0889999E-02    2.2526001E-05
  2.0925000E-02    1.9693820E-05
  2.0959999E-02    1.6906102E-05
  2.0995000E-02    1.4180291E-05
  2.1029999E-02    1.1511453E-05
  2.1065000E-02    8.8967718E-06
  2.1100000E-02    6.3512994E-06
  2.1135001E-02    3.8780199E-06
  2.1170000E-02    1.4678465E-06
  2.1205001E-02   -8.7318739E-07
  2.1240000E-02   -3.1347147E-06
  2.1275001E-02   -5.3217727E-06
  2.1310000E-02   -7.4380732E-06
  2.1345001E-02   -9.4758780E-06
  2.1380000E-02   -1.1436322E-05
  2.1415001E-02   -1.3327070E-05
  2.1450000E-02   -1.5142445E-05
  2.1485001E-02   -1.6879520E-05
  2.1520000E-02   -1.8549223E-05
  2.1555001E-02   -2.0150372E-05
  2.1590000E-02   -2.1675543E-05
  2.1624999E-02   -2.3136143E-05
  2.1660000E-02   -2.4539671E-05
  2.1694999E-02   -2.5877918E-05
  2.1730000E-02   -2.7155140E-05
  2.1764999E-02   -2.8382361E-05
  2.1800000E-02   -2.9557334E-05
  2.1834999E-02   -3.0678329E-05
  2.1870000E-02   -3.1750613E-05
  2.1904999E-02   -3.2779790E-05
  2.1940000E-02   -3.3771972E-05
  2.1974999E-02   -3.4727014E-05
  2.2010000E-02   -3.5644480E-05
  2.2045000E-02   -3.6534479E-05
  2.2080000E-02   -3.7398546E-05
  2.2115000E-02   -3.8229467E-05
  2.2150001E-02   -3.9035811E-05
  2.2185000E-02   -3.9825514E-05
  2.2220001E-02   -4.0592615E-05
  2.2255000E-02   -4.1342311E-05
  2.2290001E-02   -4.2083229E-05
  2.2325000E-02   -4.2807944E-05
  2.2360001E-02   -4.3514290E-05
  2.2395000E-02   -4.4210305E-05
  2.2430001E-02   -4.4896195E-05
  2.2465000E-02   -4.5570501E-05
  2.2500001E-02   -4.6234378E-05
  2.2535000E-02   -4.6885270E-05
  2.2569999E-02   -4.7524030E-05
  2.2605000E-02   -4.8154354E-05
  2.2639999E-02   -4.8773516E-05
  2.2675000E-02   -4.9376664E-05
  2.2709999E-02   -4.9962797E-05
  2.2745000E-02   -5.0534400E-05
  2.2779999E-02   -5.1092538E-05
  2.2815000E-02   -5.1631305E-05
  2.2849999E-02   -5.2146795E-05
  2.2885000E-02   -5.2642023E-05
  2.2919999E-02   -5.3114793E-05
  2.2955000E-02   -5.3560543E-05
  2.2990000E-02   -5.3981548E-05
  2.3025000E-02   -5.4377724E-05
  2.3060000E-02   -5.4743839E-05
  2.3095001E-02   -5.5076336E-05
  2.3130000E-02   -5.5374810E-05
  2.3165001E-02   -5.5643432E-05
  2.3200000E-02   -5.5881719E-05
  2.3235001E-02   -5.6081019E-05
  2.3270000E-02   -5.6244229E-05
  2.3305001E-02   -5.6378183E-05
  2.3340000E-02   -5.6473615E-05
  2.3375001E-02   -5.6529647E-05
  2.3410000E-02   -5.6557354E-05
  2.3445001E-02   -5.6549525E-05
  2.3480000E-02   -5.6501071E-05
  2.3514999E-02   -5.6426481E-05
  2.3550000E-02   -5.6325938E-05
  2.3584999E-02   -5.6189710E-05
  2.3620000E-02   -5.6023244E-05
  2.3654999E-02   -5.5830817E-05
  2.3690000E-02   -5.5612676E-05
  2.3724999E-02   -5.5374378E-05
  2.3760000E-02   -5.5114706E-05
  2.3794999E-02   -5.4834203E-05
  2.3830000E-02   -5.4540877E-05
  2.3864999E-02   -5.4232620E-05
  2.3900000E-02   -5.3910520E-05
  2.3934999E-02   -5.3584125E-05
  2.3970000E-02   -5.3248044E-05
  2.4005000E-02   -5.2901090E-05
  2.4040001E-02   -5.2556999E-05
  2.4075000E-02   -5.2211570E-05
  2.4110001E-02   -5.1860519E-05
  2.4145000E-02   -5.1519892E-05
  2.4180001E-02   -5.1186980E-05
  2.4215000E-02   -5.0849674E-05
  2.4250001E-02   -5.0521219E-05
  2.4285000E-02   -5.0206283E-05
  2.4320001E-02   -4.9892929E-05
  2.4355000E-02   -4.9588536E-05
  2.4390001E-02   -4.9301249E-05
  2.4425000E-02   -4.9021677E-05
  2.4460001E-02   -4.8747708E-05
  2.4495000E-02   -4.8483551E-05
  2.4529999E-02   -4.8228336E-05
  2.4565000E-02   -4.7982881E-05
  2.4599999E-02   -4.7746402E-05
  2.4635000E-02   -4.7516874E-05
  2.4669999E-02   -4.7294532E-05
  2.4705000E-02   -4.7075289E-05
  2.4739999E-02   -4.6858873E-05
  2.4775000E-02   -4.6648864E-05
  2.4809999E-02   -4.6437395E-05
  2.4845000E-02   -4.6222638E-05
  2.4879999E-02   -4.6014080E-05
  2.4915000E-02   -4.5803114E-05
  2.4950000E-02   -4.5580200E-05
  2.4985000E-02   -4.5357654E-05
  2.5020000E-02   -4.5134235E-05
  2.5055001E-02   -4.4895423E-05
  2.5090000E-02   -4.4649118E-05
  2.5125001E-02   -4.4401935E-05
  2.5160000E-02   -4.4140823E-05
  2.5195001E-02   -4.3866210E-05
  2.5230000E-02   -4.3588592E-05
  2.5265001E-02   -4.3301687E-05
  2.5300000E-02   -4.2998625E-05
  2.5335001E-02   -4.2685664E-05
  2.5370000E-02   -4.2365442E-05
  2.5405001E-02   -4.2034455E-05
  2.5440000E-02   -4.1694773E-05
  2.5474999E-02   -4.1349558E-05
  2.5510000E-02   -4.0995670E-05
  2.5544999E-02   -4.0632287E-05
  2.5580000E-02   -4.0264338E-05
  2.5614999E-02   -3.9891209E-05
  2.5650000E-02   -3.9511273E-05
  2.5684999E-02   -3.9132086E-05
  2.5720000E-02   -3.8755366E-05
  2.5754999E-02   -3.8374397E-05
  2.5790000E-02   -3.7993534E-05
  2.5824999E-02   -3.7617971E-05
  2.5860000E-02   -3.7241203E-05
  2.5895000E-02   -3.6866328E-05
  2.5930000E-02   -3.6502799E-05
  2.5965000E-02   -3.6144269E-05
  2.6000001E-02   -3.5785772E-05
  2.6035000E-02   -3.5435714E-05
  2.6070001E-02   -3.5095491E-05
  2.6105000E-02   -3.4761299E-05
  2.6140001E-02   -3.4437155E-05
  2.6175000E-02   -3.4124365E-05
  2.6210001E-02   -3.3817785E-05
  2.6245000E-02   -3.3516542E-05
  2.6280001E-02   -3.3223925E-05
  2.6315000E-02   -3.2940487E-05
  2.6350001E-02   -3.2664026E-05
  2.6385000E-02   -3.2394710E-05
  2.6419999E-02   -3.2134056E-05
  2.6455000E-02   -3.1878451E-05
  2.6489999E-02   -3.1624899E-05
  2.6525000E-02   -3.1377323E-05
  2.6559999E-02   -3.1135623E-05
  2.6595000E-02   -3.0895619E-05
  2.6629999E-02   -3.0660158E-05
  2.6665000E-02   -3.0429257E-05
  2.6699999E-02   -3.0195393E-05
  2.6735000E-02   -2.9959217E-05
  2.6769999E-02   -2.9725319E-05
  2.6805000E-02   -2.9490096E-05
  2.6839999E-02   -2.9252109E-05
  2.6875000E-02   -2.9014098E-05
  2.6910000E-02   -2.8772505E-05
  2.6945001E-02   -2.8525190E-05
  2.6980000E-02   -2.8277114E-05