 -4.8000002E-03    1.0000000E-24
 -4.7650002E-03    1.0000002E-24
 -4.7300002E-03    1.0000001E-24
 -4.6950001E-03    1.0000002E-24
 -4.6600001E-03    1.0000003E-24
 -4.6250001E-03    1.0000000E-24
 -4.5900000E-03    1.0000000E-24
 -4.5550000E-03    1.0000002E-24
 -4.5200000E-03    1.0000001E-24
 -4.4849999E-03    9.9999963E-25
 -4.4499999E-03    1.0000001E-24
 -4.4149999E-03    1.0000007E-24
 -4.3799998E-03    1.0000005E-24
 -4.3449998E-03    1.0000000E-24
 -4.3100002E-03    9.9999982E-25
 -4.2750002E-03    1.0000003E-24
 -4.2400002E-03    1.0000003E-24
 -4.2050001E-03    9.9999982E-25
 -4.1700001E-03    9.9999972E-25
 -4.1350001E-03    1.0000004E-24
 -4.1000000E-03    1.0000008E-24
 -4.0650000E-03    1.0000003E-24
 -4.0300000E-03    9.9999963E-25
 -3.9949999E-03    9.9999963E-25
 -3.9599999E-03    1.0000000E-24
 -3.9249999E-03    1.0000003E-24
 -3.8900001E-03    9.9999992E-25
 -3.8550000E-03    9.9999972E-25
 -3.8200000E-03    1.0000006E-24
 -3.7849999E-03    1.0000009E-24
 -3.7499999E-03    9.9999972E-25
 -3.7150001E-03    9.9999913E-25
 -3.6800001E-03    1.0000001E-24
 -3.6450000E-03    1.0000008E-24
 -3.6100000E-03    1.0000001E-24
 -3.5750000E-03    9.9999972E-25
 -3.5399999E-03    1.0000005E-24
 -3.5049999E-03    1.0000007E-24
 -3.4700001E-03    9.9999992E-25
 -3.4350001E-03    9.9999943E-25
 -3.4000000E-03    9.9999972E-25
 -3.3650000E-03    1.0000003E-24
 -3.3300000E-03    1.0000004E-24
 -3.2949999E-03    1.0000005E-24
 -3.2599999E-03    9.9999992E-25
 -3.2250001E-03    9.9999972E-25
 -3.1900001E-03    1.0000005E-24
 -3.1550000E-03    1.0000006E-24
 -3.1200000E-03    9.9999943E-25
 -3.0850000E-03    9.9999963E-25
 -3.0499999E-03    1.0000011E-24
 -3.0149999E-03    1.0000008E-24
 -2.9800001E-03    9.9999943E-25
 -2.9450001E-03    9.9999972E-25
 -2.9100000E-03    1.0000006E-24
 -2.8750000E-03    9.9999992E-25
 -2.8400000E-03    9.9999923E-25
 -2.8049999E-03    1.0000002E-24
 -2.7699999E-03    1.0000007E-24
 -2.7350001E-03    1.0000002E-24
 -2.7000001E-03    9.9999972E-25
 -2.6650000E-03    1.0000000E-24
 -2.6300000E-03    1.0000001E-24
 -2.5950000E-03    9.9999992E-25
 -2.5599999E-03    1.0000003E-24
 -2.5249999E-03    1.0000007E-24
 -2.4900001E-03    1.0000000E-24
 -2.4550001E-03    9.9999982E-25
 -2.4200000E-03    1.0000008E-24
 -2.3850000E-03    1.0000009E-24
 -2.3500000E-03    9.9999933E-25
 -2.3149999E-03    9.9999903E-25
 -2.2799999E-03    1.0000007E-24
 -2.2450001E-03    1.0000008E-24
 -2.2100001E-03    9.9999943E-25
 -2.1750000E-03    9.9999963E-25
 -2.1400000E-03    1.0000007E-24
 -2.1050000E-03    1.0000005E-24
 -2.0699999E-03    9.9999963E-25
 -2.0349999E-03    9.9999913E-25
 -2.0000001E-03    1.0000009E-24
 -1.9650001E-03    1.0000050E-24
 -1.9300000E-03    9.9999548E-25
 -1.8950000E-03    9.9998395E-25
 -1.8600000E-03    1.0000289E-24
 -1.8250000E-03    1.0000227E-24
 -1.7900000E-03    9.9993701E-25
 -1.7550000E-03    1.0000387E-24
 -1.7199999E-03    1.0001742E-24
 -1.6850000E-03    9.9964158E-25
 -1.6500000E-03    9.9994421E-25
 -1.6150000E-03    1.0008631E-24
 -1.5800000E-03    9.9949308E-25
 -1.5450000E-03    9.9874879E-25
 -1.5100000E-03    1.0016976E-24
 -1.4750001E-03    1.0013066E-24
 -1.4400000E-03    9.9439073E-25
 -1.4050000E-03    1.0038910E-24
 -1.3700000E-03    1.0123034E-24
 -1.3350000E-03    9.8428049E-25
 -1.3000000E-03    9.9142944E-25
 -1.2650000E-03    1.0356284E-24
 -1.2300001E-03    9.7722975E-25
 -1.1950000E-03    9.3947979E-25
 -1.1600000E-03    1.0414730E-24
 -1.1250000E-03    1.1150253E-24
 -1.0900000E-03    9.0656290E-25
 -1.0550000E-03    9.1852903E-25
 -1.0200000E-03    1.2580587E-24
 -9.8500005E-04    8.0993217E-25
 -9.5000002E-04    3.8436197E-25
 -9.1499998E-04    1.3951103E-24
 -8.8000001E-04    1.8101120E-24
 -8.4499997E-04   -6.8605218E-26
 -8.1000000E-04    9.3555314E-25
 -7.7500002E-04    2.9610531E-24
 -7.3999999E-04   -2.8304112E-25
 -7.0500001E-04   -7.0702995E-25
 -6.6999998E-04    3.4512006E-24
 -6.3500000E-04    3.3174011E-24
 -6.0000003E-04   -9.3833821E-24
 -5.6499999E-04    1.6397796E-24
 -5.3000002E-04    1.6931563E-23
 -4.9499999E-04   -1.6162189E-23
 -4.6000001E-04   -2.4592074E-23
 -4.2500001E-04    1.9752727E-23
 -3.9000000E-04   -8.0118907E-24
 -3.5500000E-04   -7.1131657E-23
 -3.1999999E-04    5.4711819E-24
 -2.8499999E-04    1.1349429E-22
 -2.5000001E-04   -1.9264056E-23
 -2.1499999E-04   -1.4989387E-22
 -1.8000000E-04    5.1399264E-23
 -1.4500000E-04    1.7862626E-22
 -1.1000000E-04   -1.8087061E-22
 -7.5000004E-05   -1.0102336E-22
 -3.9999999E-05    3.6869549E-22
 -4.9999999E-06    2.2213816E-22
  2.9999999E-05   -3.5379851E-22
  6.5000000E-05    7.4585227E-23
  9.9999997E-05    5.5012913E-22
  1.3499999E-04   -1.7980075E-22
  1.7000000E-04    2.1859583E-23
  2.0500000E-04    9.9646102E-22
  2.3999999E-04   -1.8145323E-22
  2.7500000E-04   -2.5296411E-21
  3.1000000E-04    1.7149813E-21
  3.4500001E-04    3.0379436E-21
  3.8000001E-04   -3.2565368E-21
  4.1499999E-04   -3.9303673E-21
  4.4999999E-04    6.7687289E-21
  4.8500000E-04    1.0870325E-20
  5.2000000E-04   -1.2754178E-20
  5.5499998E-04   -5.1841925E-21
  5.9000001E-04    2.1557818E-20
  6.2499999E-04    2.0074617E-21
  6.6000002E-04   -3.5214019E-20
  6.9500000E-04   -3.3131906E-24
  7.3000003E-04    4.9643597E-20
  7.6500000E-04    7.1870858E-23
  7.9999998E-04   -5.4789814E-20
  8.3500001E-04    1.6947086E-20
  8.6999999E-04    7.5811284E-20
  9.0500002E-04   -5.3305070E-20
  9.4000000E-04   -9.3279620E-20
  9.7499997E-04    6.6063988E-20
  1.0100000E-03    1.0613962E-19
  1.0450000E-03   -1.3366325E-19
  1.0800000E-03   -1.5760699E-19
  1.1150000E-03    1.5794406E-19
  1.1500000E-03   -6.6682118E-20
  1.1849999E-03   -3.7813724E-19
  1.2200000E-03    2.1705881E-19
  1.2550000E-03    5.7520625E-19
  1.2900000E-03   -5.4776913E-19
  1.3250000E-03   -7.8862779E-19
  1.3600000E-03    8.0919817E-19
  1.3950000E-03    1.0612392E-18
  1.4299999E-03   -1.3417446E-18
  1.4650000E-03   -1.5558685E-18
  1.5000000E-03    2.2279305E-18
  1.5350000E-03    1.5785775E-18
  1.5700000E-03   -2.5072984E-18
  1.6050000E-03   -7.6571365E-19
  1.6400000E-03    2.4053480E-18
  1.6749999E-03   -8.6006549E-19
  1.7100000E-03   -2.9386619E-18
  1.7450000E-03    6.3472593E-20
  1.7800000E-03   -3.3279802E-19
  1.8150000E-03   -1.2511880E-18
  1.8500000E-03   -5.0784873E-19
  1.8850000E-03    1.5653638E-18
  1.9200000E-03   -3.8692618E-18
  1.9550000E-03   -7.4803680E-18
  1.9900000E-03    5.7614877E-19
  2.0250001E-03    1.1054921E-17
  2.0600001E-03   -1.7832509E-18
  2.0949999E-03   -2.2369827E-17
  2.1299999E-03   -1.1065723E-18
  2.1650000E-03    2.7139788E-17
  2.2000000E-03    2.4196971E-18
  2.2350000E-03   -3.4761031E-17
  2.2700001E-03   -7.0538100E-18
  2.3050001E-03    4.8330992E-17
  2.3399999E-03    1.6732582E-17
  2.3749999E-03   -7.2485255E-17
  2.4100000E-03   -5.6655135E-17
  2.4450000E-03    5.6449776E-17
  2.4800000E-03    7.6601564E-17
  2.5150001E-03   -4.5321947E-17
  2.5500001E-03   -8.1005162E-17
  2.5849999E-03    1.9887578E-17
  2.6199999E-03    8.5315752E-17
  2.6550000E-03    2.8433635E-17
  2.6900000E-03   -1.0035752E-16
  2.7250000E-03   -9.8970334E-17
  2.7600001E-03    8.8223193E-17
  2.7950001E-03    2.6045702E-16
  2.8299999E-03    2.3144659E-17
  2.8649999E-03   -3.5565278E-16
  2.9000000E-03   -1.6861993E-16
  2.9350000E-03    4.3499946E-16
  2.9700000E-03    2.9124521E-16
  3.0050001E-03   -5.3488754E-16
  3.0400001E-03   -5.7700514E-16
  3.0749999E-03    6.0599516E-16
  3.1099999E-03    8.9610135E-16
  3.1450000E-03   -5.4060422E-16
  3.1800000E-03   -1.2543378E-15
  3.2150000E-03    3.2256298E-16
  3.2500001E-03    1.5282997E-15
  3.2850001E-03   -1.2173112E-17
  3.3199999E-03   -1.7568780E-15
  3.3549999E-03   -4.5832339E-16
  3.3900000E-03    1.8457314E-15
  3.4250000E-03    1.0154929E-15
  3.4600000E-03   -1.6589618E-15
  3.4950001E-03   -1.7217838E-15
  3.5300001E-03    8.9819744E-16
  3.5649999E-03    2.1080312E-15
  3.5999999E-03    1.0871068E-16
  3.6350000E-03   -2.5802805E-15
  3.6700000E-03   -1.7712732E-15
  3.7050000E-03    2.6019224E-15
  3.7400001E-03    3.8355168E-15
  3.7750001E-03   -2.2972995E-15
  3.8099999E-03   -6.8862563E-15
  3.8449999E-03    8.5247667E-16
  3.8800000E-03    1.0094125E-14
  3.9149998E-03    1.6413581E-15
  3.9499998E-03   -1.3492553E-14
  3.9849998E-03   -5.5180220E-15
  4.0199999E-03    1.6546811E-14
  4.0549999E-03    1.0631803E-14
  4.0899999E-03   -1.8835999E-14
  4.1250000E-03   -1.7004281E-14
  4.1600000E-03    1.9323552E-14
  4.1950000E-03    2.3816588E-14
  4.2300001E-03   -1.7216868E-14
  4.2650001E-03   -2.9746493E-14
  4.3000001E-03    1.2459867E-14
  4.3350002E-03    3.3538198E-14
  4.3700002E-03   -5.1253599E-15
  4.4049998E-03   -3.3374914E-14
  4.4399998E-03   -4.3715358E-15
  4.4749998E-03    2.7045154E-14
  4.5099999E-03    1.4304045E-14
  4.5449999E-03   -1.2957726E-14
  4.5799999E-03   -2.2841014E-14
  4.6150000E-03   -1.0809788E-14
  4.6500000E-03    2.6157902E-14
  4.6850001E-03    4.3439194E-14
  4.7200001E-03   -2.1712624E-14
  4.7550001E-03   -8.4139543E-14
  4.7900002E-03    6.1739486E-15
  4.8250002E-03    1.2991833E-13
  4.8600002E-03    2.2446603E-14
  4.8949998E-03   -1.7652423E-13
  4.9299998E-03   -6.4488942E-14
  4.9649999E-03    2.1844092E-13
  4.9999999E-03    1.1737017E-13
  5.0349999E-03   -2.5088165E-13
  5.0700000E-03   -1.7721843E-13
  5.1050000E-03    2.6841674E-13
  5.1400000E-03    2.3698185E-13
  5.1750001E-03   -2.6781889E-13
  5.2100001E-03   -2.8915284E-13
  5.2450001E-03    2.4616393E-13
  5.2800002E-03    3.2461146E-13
  5.3150002E-03   -2.0183615E-13
  5.3500002E-03   -3.3311464E-13
  5.3849998E-03    1.3464109E-13
  5.4199998E-03    3.0286586E-13
  5.4549999E-03   -4.7105416E-14
  5.4899999E-03   -2.2120801E-13
  5.5249999E-03   -5.3696529E-14
  5.5600000E-03    7.7940462E-14
  5.5950000E-03    1.5752506E-13
  5.6300000E-03    1.3418390E-13
  5.6650001E-03   -2.5096068E-13
  5.7000001E-03   -4.1940621E-13
  5.7350001E-03    3.1359428E-13
  5.7700002E-03    7.7321699E-13
  5.8050002E-03   -3.1989653E-13
  5.8400002E-03   -1.1736906E-12
  5.8749998E-03    2.4482960E-13
  5.9099998E-03    1.5718612E-12
  5.9449999E-03   -8.8888444E-14
  5.9799999E-03   -1.9107938E-12
  6.0149999E-03   -1.2446661E-13
  6.0500000E-03    2.1453789E-12
  6.0850000E-03    3.5899181E-13
  6.1200000E-03   -2.2487934E-12
  6.1550001E-03   -5.8333476E-13
  6.1900001E-03    2.1868752E-12
  6.2250001E-03    7.6650058E-13
  6.2600002E-03   -1.9133358E-12
  6.2950002E-03   -8.6363187E-13
  6.3299998E-03    1.4041021E-12
  6.3649998E-03    7.9892581E-13
  6.3999998E-03   -6.5400295E-13
  6.4349999E-03   -5.2338553E-13
  6.4699999E-03   -2.9949009E-13
  6.5049999E-03    1.3649609E-14
  6.5400000E-03    1.4047635E-12
  6.5750000E-03    6.4295666E-13
  6.6100000E-03   -2.7670186E-12
  6.6450001E-03   -1.5694465E-12
  6.6800001E-03    4.3720969E-12
  6.7150001E-03    2.9465855E-12
  6.7500002E-03   -5.9558391E-12
  6.7850002E-03   -4.7438720E-12
  6.8199998E-03    7.0812332E-12
  6.8549998E-03    6.4685991E-12
  6.8899998E-03   -7.9187152E-12
  6.9249999E-03   -7.6952559E-12
  6.9599999E-03    8.5119967E-12
  6.9949999E-03    8.6840214E-12
  7.0300000E-03   -8.4388841E-12
  7.0650000E-03   -8.6997302E-12
  7.1000000E-03    7.7403509E-12
  7.1350001E-03    7.8217077E-12
  7.1700001E-03   -6.7950623E-12
  7.2050001E-03   -5.5971556E-12
  7.2400002E-03    6.5330991E-12
  7.2750002E-03    2.3042479E-12
  7.3099998E-03   -6.7346116E-12
  7.3449998E-03    2.3623362E-12
  7.3799998E-03    6.6645756E-12
  7.4149999E-03   -7.2172194E-12
  7.4499999E-03   -6.0054214E-12
  7.4850000E-03    1.4953490E-11
  7.5200000E-03    6.4505241E-12
  7.5550000E-03   -2.1965213E-11
  7.5900001E-03   -8.0743901E-12
  7.6250001E-03    2.7077330E-11
  7.6600001E-03    9.1290846E-12
  7.6950002E-03   -3.0428542E-11
  7.7300002E-03   -1.4028623E-11
  7.7650002E-03    2.9958681E-11
  7.7999998E-03    2.0598837E-11
  7.8349998E-03   -2.6991650E-11
  7.8699999E-03   -1.8390933E-11
  7.9049999E-03    3.2752853E-11
  7.9399999E-03    1.3501428E-11
  7.9750000E-03   -4.2761877E-11
  8.0100000E-03   -1.4029277E-11
  8.0450000E-03    4.4336024E-11
  8.0800001E-03    4.6131315E-12
  8.1150001E-03   -4.8284217E-11
  8.1500001E-03    1.5152980E-11
  8.1850002E-03    5.7933960E-11
  8.2200002E-03   -2.4332036E-11
  8.2550002E-03   -5.4199770E-11
  8.2900003E-03    2.0920064E-11
  8.3250003E-03    4.9170723E-11
  8.3600003E-03   -4.0883356E-11
  8.3950004E-03   -6.9965825E-11
  8.4300004E-03    6.1836342E-11
  8.4650004E-03    8.6526765E-11
  8.5000005E-03   -6.0724516E-11
  8.5349996E-03   -7.4268570E-11
  8.5699996E-03    8.9204477E-11
  8.6049996E-03    6.0378709E-11
  8.6399997E-03   -1.2369325E-10
  8.6749997E-03   -5.4163368E-11
  8.7099997E-03    1.6104877E-10
  8.7449998E-03    4.9459107E-11
  8.7799998E-03   -1.2743077E-10
  8.8149998E-03   -4.6939340E-12
  8.8499999E-03    1.3455274E-10
  8.8849999E-03   -6.7879209E-11
  8.9199999E-03   -2.0533006E-10
  8.9550000E-03    7.4558991E-11
  8.9900000E-03    2.5133082E-10
  9.0250000E-03   -6.9546556E-11
  9.0600001E-03   -2.8859301E-10
  9.0950001E-03   -1.0176694E-11
  9.1300001E-03    2.6158062E-10
  9.1650002E-03    4.4106958E-12
  9.2000002E-03   -2.5840222E-10
  9.2350002E-03    1.2600802E-10
  9.2700003E-03    3.1118980E-10
  9.3050003E-03   -3.1194991E-10
  9.3400003E-03   -4.5149423E-10
  9.3750004E-03    3.4516101E-10
  9.4100004E-03    5.0439547E-10
  9.4450004E-03   -2.8470934E-10
  9.4799995E-03   -3.6654960E-10
  9.5149996E-03    1.1336020E-10
  9.5499996E-03    5.4428004E-11
  9.5849996E-03   -1.6013822E-10
  9.6199997E-03    4.6984017E-11
  9.6549997E-03    3.3236816E-10
  9.6899997E-03    3.7207415E-10
  9.7249998E-03   -2.8679994E-10
  9.7599998E-03   -6.1232236E-10
  9.7949998E-03    2.6406766E-10
  9.8299999E-03    5.7693705E-10
  9.8649999E-03   -1.4210225E-10
  9.8999999E-03   -2.2746342E-10
  9.9350000E-03    1.6505500E-10
  9.9700000E-03   -1.5040351E-10
  1.0005000E-02   -3.5539702E-10
  1.0040000E-02   -1.7819334E-10
  1.0075000E-02    1.8772331E-10
  1.0110000E-02    3.9332848E-10
  1.0145000E-02   -2.6837288E-10
  1.0180000E-02   -8.0446988E-10
  1.0215000E-02   -1.1059140E-10
  1.0250000E-02    2.3043546E-10
  1.0285000E-02   -1.5179290E-10
  1.0320000E-02   -1.6097217E-10
  1.0355000E-02    9.2646404E-11
  1.0390000E-02    2.4066196E-10
  1.0425000E-02    6.9079018E-12
  1.0460000E-02   -5.2921595E-10
  1.0495000E-02   -3.4138323E-10
  1.0530000E-02    6.6333994E-11
  1.0565000E-02    3.0744445E-11
  1.0600000E-02    1.3394376E-10
  1.0635000E-02    1.0629080E-09
  1.0670000E-02    4.3928999E-10
  1.0705000E-02   -7.6516304E-10
  1.0740000E-02   -1.8049497E-10
  1.0775000E-02    5.5810423E-10
  1.0810000E-02   -1.1269916E-10
  1.0845000E-02    1.8715507E-11
  1.0880000E-02    1.6883897E-10
  1.0915000E-02   -3.5956535E-10
  1.0950000E-02   -4.7575827E-10
  1.0985000E-02   -2.7297900E-10
  1.1020000E-02   -3.8130085E-12
  1.1055000E-02    5.9572564E-10
  1.1090000E-02   -1.7099074E-11
  1.1125000E-02   -5.6180560E-10
  1.1160000E-02    6.4344674E-10
  1.1195000E-02    5.2094862E-10
  1.1230000E-02   -1.1099873E-09
  1.1265000E-02   -4.6469439E-10
  1.1300000E-02    1.5073184E-09
  1.1335000E-02    4.8878988E-11
  1.1370000E-02   -2.8636336E-09
  1.1405000E-02   -1.7058365E-09
  1.1440000E-02    1.1960695E-09
  1.1475000E-02    9.8465824E-10
  1.1510000E-02    1.0717711E-10
  1.1545000E-02    1.0198336E-09
  1.1580000E-02    7.6713247E-10
  1.1615000E-02   -1.3057000E-10
  1.1650000E-02    3.7102935E-10
  1.1685000E-02   -2.1759464E-11
  1.1720000E-02   -9.4621255E-10
  1.1755000E-02    5.3393684E-10
  1.1790000E-02    9.2066960E-10
  1.1825000E-02   -9.5569297E-10
  1.1860000E-02   -6.3668543E-10
  1.1895000E-02    6.4028166E-10
  1.1930000E-02   -4.4283996E-10
  1.1965000E-02   -2.6319588E-10
  1.2000000E-02    7.8111168E-10
  1.2035000E-02   -3.4186079E-10
  1.2070000E-02   -1.0471114E-09
  1.2105000E-02   -5.5592465E-11
  1.2140000E-02    7.6347884E-10
  1.2175000E-02    8.6347585E-10
  1.2210000E-02    5.3998356E-10
  1.2245000E-02   -2.8562033E-10
  1.2280000E-02   -4.7158633E-10
  1.2315000E-02   -2.1538936E-11
  1.2350000E-02   -6.5326071E-11
  1.2385000E-02    3.2318481E-10
  1.2420000E-02    2.5127250E-10
  1.2455000E-02   -5.9938482E-10
  1.2490000E-02   -1.8684530E-10
  1.2525000E-02    4.1083914E-11
  1.2560000E-02   -3.2958170E-10
  1.2595000E-02    6.1445754E-10
  1.2630000E-02    7.2368900E-10
  1.2665000E-02   -9.4423758E-10
  1.2700000E-02   -8.5508788E-11
  1.2735000E-02    2.2901636E-09
  1.2770000E-02    1.2036198E-09
  1.2805000E-02   -7.5827933E-10
  1.2840000E-02    3.1363803E-10
  1.2875000E-02    3.4268161E-10
  1.2910000E-02   -1.5581300E-09
  1.2945000E-02   -3.7681658E-10
  1.2980000E-02    2.1699702E-09
  1.3015000E-02    1.5727439E-10
  1.3050000E-02   -2.0983157E-09
  1.3085000E-02    2.0229582E-11
  1.3120000E-02    1.2084078E-09
  1.3155000E-02   -1.0113027E-09
  1.3190000E-02   -7.7179979E-10
  1.3225000E-02    1.9664557E-09
  1.3260000E-02    1.2312484E-09
  1.3295000E-02   -8.5147378E-10
  1.3330000E-02    1.1610768E-10
  1.3365000E-02    1.2345713E-09
  1.3400000E-02   -6.1976096E-10
  1.3435000E-02   -1.8832982E-09
  1.3470000E-02   -3.4940748E-11
  1.3505000E-02    1.0208547E-09
  1.3540000E-02   -1.5057716E-09
  1.3575000E-02   -1.8725226E-09
  1.3610000E-02    2.2839104E-09
  1.3645000E-02    3.0523795E-09
  1.3680000E-02   -1.1029185E-09
  1.3715000E-02   -1.4554831E-09
  1.3750000E-02    1.9443727E-09
  1.3785000E-02    1.3759083E-09
  1.3820000E-02   -1.6708072E-09
  1.3855000E-02   -1.1846382E-09
  1.3890000E-02    4.7697446E-10
  1.3925000E-02   -1.1599439E-09
  1.3960000E-02   -2.3008866E-09
  1.3995000E-02    6.9759698E-10
  1.4030000E-02    2.1140267E-09
  1.4065000E-02   -7.1958633E-10
  1.4100000E-02   -1.3933261E-09
  1.4135000E-02   -3.2705276E-11
  1.4170000E-02   -1.7605667E-09
  1.4205000E-02   -2.0342665E-09
  1.4240000E-02    1.7225834E-09
  1.4275000E-02    1.3117295E-09
  1.4310000E-02   -2.6938771E-09
  1.4345000E-02   -1.7239182E-09
  1.4380000E-02    8.7650159E-10
  1.4415000E-02   -3.6508382E-10
  1.4450000E-02   -1.1007889E-09
  1.4485000E-02    1.4194877E-10
  1.4520000E-02   -5.1295579E-11
  1.4555000E-02   -2.5754319E-11
  1.4590000E-02    1.0660579E-09
  1.4625000E-02    2.1503498E-10
  1.4660000E-02   -1.2022390E-09
  1.4695000E-02   -6.6173000E-10
  1.4730000E-02   -2.8061975E-10
  1.4765000E-02   -1.6485374E-10
  1.4800000E-02    7.8932655E-10
  1.4835000E-02    6.8370844E-11
  1.4870000E-02   -1.0885195E-09
  1.4905000E-02    3.1536096E-10
  1.4940000E-02    2.1527896E-10
  1.4975000E-02   -2.1951088E-09
  1.5010000E-02   -9.6096953E-10
  1.5045000E-02    1.2771310E-09
  1.5080000E-02   -8.0922719E-10
  1.5115000E-02   -1.6095101E-09
  1.5150000E-02    1.4230103E-09
  1.5185000E-02    1.6532202E-09
  1.5220000E-02   -7.3404788E-10
  1.5255000E-02   -8.3975593E-10
  1.5290000E-02   -4.3497342E-10
  1.5325000E-02   -6.5635819E-10
  1.5360000E-02    5.3965438E-10
  1.5395000E-02    1.3808585E-09
  1.5430000E-02    4.4862816E-10
  1.5465000E-02   -1.7937354E-10
  1.5500000E-02   -2.8784428E-10
  1.5535000E-02    2.7412045E-11
  1.5570000E-02    1.9214046E-09
  1.5605000E-02    2.2609219E-09
  1.5640000E-02   -1.1843656E-09
  1.5675001E-02   -2.2012889E-09
  1.5710000E-02    1.3657340E-09
  1.5745001E-02    1.5211018E-09
  1.5780000E-02   -1.3861909E-09
  1.5814999E-02    9.8326858E-10
  1.5850000E-02    3.5220673E-09
  1.5884999E-02   -7.4034745E-10
  1.5920000E-02   -2.5983826E-09
  1.5954999E-02    1.0774047E-09
  1.5990000E-02    5.0347854E-10
  1.6024999E-02   -1.7238414E-09
  1.6060000E-02    8.1314649E-10
  1.6094999E-02    1.3471888E-09
  1.6130000E-02   -7.2648521E-10
  1.6164999E-02    7.4123391E-10
  1.6200000E-02    8.9768304E-10
  1.6235000E-02   -1.6227431E-09
  1.6270000E-02   -6.5745792E-10
  1.6305000E-02   -1.7121739E-10
  1.6340001E-02   -2.4019224E-09
  1.6375000E-02    1.8729507E-10
  1.6410001E-02    4.1376769E-09
  1.6445000E-02    1.8544856E-09
  1.6480001E-02   -2.8669714E-10
  1.6515000E-02    1.2566492E-09
  1.6550001E-02   -6.3000674E-11
  1.6585000E-02   -2.7657412E-09
  1.6620001E-02   -6.4756689E-10
  1.6655000E-02    2.5831959E-09
  1.6690001E-02    1.1435336E-09
  1.6725000E-02   -1.4394050E-09
  1.6759999E-02   -1.2179602E-10
  1.6795000E-02    1.4565772E-09
  1.6829999E-02   -8.8122815E-10
  1.6865000E-02   -2.0743744E-09
  1.6899999E-02    6.7677014E-10
  1.6935000E-02    1.1075532E-09
  1.6969999E-02   -8.5748830E-10
  1.7005000E-02    9.9058528E-10
  1.7039999E-02    2.7565854E-09
  1.7075000E-02   -1.0736626E-09
  1.7109999E-02   -3.8092929E-09
  1.7145000E-02   -2.5019092E-10
  1.7180000E-02    3.3599805E-09
  1.7215000E-02    2.2757085E-09
  1.7250000E-02   -7.8410521E-11
  1.7285001E-02   -1.1549874E-10
  1.7320000E-02    7.4223422E-10
  1.7355001E-02   -4.6483070E-10
  1.7390000E-02   -2.2629969E-09
  1.7425001E-02   -1.3793643E-09
  1.7460000E-02    2.0241504E-10
  1.7495001E-02   -3.1221783E-10
  1.7530000E-02   -8.3001339E-10
  1.7565001E-02   -2.3058311E-10
  1.7600000E-02   -1.4848837E-10
  1.7635001E-02   -1.1100667E-10
  1.7670000E-02    4.2660084E-10
  1.7704999E-02    6.7180989E-10
  1.7740000E-02    1.0998182E-09
  1.7774999E-02    1.0403879E-09
  1.7810000E-02   -4.4233467E-10
  1.7844999E-02   -1.1566743E-09
  1.7880000E-02   -6.5292916E-10
  1.7914999E-02   -6.0480371E-10
  1.7950000E-02   -4.1003365E-10
  1.7984999E-02   -5.8272437E-10
  1.8020000E-02   -1.7131563E-09
  1.8054999E-02   -7.9059348E-10
  1.8090000E-02    1.5314222E-09
  1.8124999E-02    1.0971771E-09
  1.8160000E-02   -5.1943672E-10
  1.8195000E-02   -3.5937295E-10
  1.8230001E-02    5.4364874E-10
  1.8265000E-02    5.6778332E-10
  1.8300001E-02   -1.1262341E-09
  1.8335000E-02   -1.7005500E-09
  1.8370001E-02    1.3363658E-09
  1.8405000E-02    1.5477478E-09
  1.8440001E-02   -2.3384135E-09
  1.8475000E-02   -5.6554517E-10
  1.8510001E-02    3.1437450E-09
  1.8545000E-02   -1.2840395E-09
  1.8580001E-02   -3.8508352E-09
  1.8615000E-02    1.7366764E-09
  1.8650001E-02    2.3021636E-09
  1.8685000E-02   -2.0359445E-09
  1.8719999E-02    7.1302901E-11
  1.8755000E-02    2.2740123E-09
  1.8789999E-02   -1.9758752E-09
  1.8825000E-02   -2.8844289E-09
  1.8859999E-02    1.8032730E-09
  1.8895000E-02    2.3648346E-09
  1.8929999E-02   -8.3810758E-10
  1.8965000E-02   -3.6538955E-10
  1.8999999E-02    1.5138598E-09
  1.9035000E-02   -5.3508620E-10
  1.9069999E-02   -2.7378044E-09
  1.9105000E-02   -1.0787514E-09
  1.9140000E-02    1.3918636E-09
  1.9175000E-02    2.1502482E-09
  1.9210000E-02    8.2791302E-10
  1.9245001E-02   -1.7275896E-09
  1.9280000E-02   -1.1057705E-09
  1.9315001E-02    1.3836502E-09
  1.9350000E-02   -5.5889449E-10
  1.9385001E-02   -2.3019049E-09
  1.9420000E-02    1.0738804E-09
  1.9455001E-02    2.3003335E-09
  1.9490000E-02    8.3159668E-10
  1.9525001E-02    2.1581501E-09
  1.9560000E-02    1.3475986E-09
  1.9595001E-02   -1.7833911E-09
  1.9630000E-02    2.1861137E-10
  1.9664999E-02    2.2067115E-09
  1.9700000E-02   -9.5755803E-10
  1.9734999E-02   -1.7618214E-09
  1.9770000E-02    1.0148398E-09
  1.9804999E-02    1.3433300E-09
  1.9840000E-02   -5.7720217E-10
  1.9874999E-02   -1.6099388E-09
  1.9910000E-02    1.3457564E-10
  1.9944999E-02    2.4832867E-09
  1.9980000E-02    2.0663955E-10
  2.0014999E-02   -2.8862917E-09
  2.0050000E-02   -1.5699485E-10
  2.0085000E-02    2.4461155E-09
  2.0120000E-02   -3.0896002E-10
  2.0155000E-02   -1.9955604E-09
  2.0190001E-02    6.7304007E-10
  2.0225000E-02    2.3854336E-09
  2.0260001E-02    1.4779920E-10
  2.0295000E-02   -1.5961749E-09
  2.0330001E-02    5.3707749E-10
  2.0365000E-02    9.5914388E-10
  2.0400001E-02   -2.1846818E-09
  2.0435000E-02   -9.3863695E-10
  2.0470001E-02    1.9258821E-09
  2.0505000E-02   -2.2754909E-09
  2.0540001E-02   -4.7477262E-09
  2.0575000E-02    7.6655177E-10
  2.0609999E-02    2.4443143E-09
  2.0645000E-02   -1.4005451E-09
  2.0679999E-02   -1.5590241E-09
  2.0715000E-02   -3.9091269E-10
  2.0749999E-02   -1.1727939E-09
  2.0785000E-02   -6.8799111E-10
  2.0819999E-02   -6.0953609E-10
  2.0855000E-02   -1.4626504E-09
  2.0889999E-02    8.6381548E-11
  2.0925000E-02    8.9779828E-10
  2.0959999E-02   -1.2668214E-09
  2.0995000E-02   -1.9220283E-09
  2.1029999E-02   -7.6055418E-10
  2.1065000E-02   -8.1210294E-10
  2.1100000E-02   -1.4176437E-09
  2.1135001E-02   -2.0442499E-09
  2.1170000E-02   -2.1201940E-09
  2.1205001E-02    4.8215997E-11
  2.1240000E-02    1.0503747E-09
  2.1275001E-02   -2.5334923E-09
  2.1310000E-02   -4.3969663E-09
  2.1345001E-02   -4.5648621E-10
  2.1380000E-02    1.0855766E-09
  2.1415001E-02   -2.5327129E-09
  2.1450000E-02   -1.8822579E-09
  2.1485001E-02    3.2210092E-09
  2.1520000E-02    2.8403828E-09
  2.1555001E-02   -1.5677969E-09
  2.1590000E-02   -2.1554565E-09
  2.1624999E-02   -6.5852340E-10
  2.1660000E-02   -7.3154351E-11
  2.1694999E-02    1.0740601E-09
  2.1730000E-02    6.9916944E-10
  2.1764999E-02   -1.9480597E-09
  2.1800000E-02   -1.8339437E-09
  2.1834999E-02    5.3714994E-10
  2.1870000E-02    1.1130098E-10
  2.1904999E-02   -5.5744698E-10
  2.1940000E-02    2.0669364E-09
  2.1974999E-02    2.9632654E-09
  2.2010000E-02   -1.9946400E-11
  2.2045000E-02   -6.9011108E-10
  2.2080000E-02    1.5969464E-09
  2.2115000E-02    1.1334818E-09
  2.2150001E-02   -1.1386208E-09
  2.2185000E-02   -9.6138097E-10
  2.2220001E-02    6.4615446E-10
  2.2255000E-02    1.9062929E-09
  2.2290001E-02    2.1297282E-09
  2.2325000E-02    2.0549182E-10
  2.2360001E-02   -1.1147849E-09
  2.2395000E-02    5.4653276E-10
  2.2430001E-02    1.4498294E-09
  2.2465000E-02    3.8476711E-10
  2.2500001E-02    9.0305391E-10
  2.2535000E-02    2.3058235E-09
  2.2569999E-02    1.8837452E-09
  2.2605000E-02    2.6322508E-10
  2.2639999E-02   -1.0876303E-09
  2.2675000E-02   -4.0106371E-10
  2.2709999E-02    2.3055213E-09
  2.2745000E-02    2.8266474E-09
  2.2779999E-02    3.7460607E-10
  2.2815000E-02   -2.4279947E-10
  2.2849999E-02    1.1226582E-09
  2.2885000E-02    3.5497671E-10
  2.2919999E-02   -1.3430547E-09
  2.2955000E-02    2.8313671E-10
  2.2990000E-02    3.3243921E-09
  2.3025000E-02    2.1675552E-09
  2.3060000E-02   -1.6410308E-09
  2.3095001E-02   -1.6903084E-09
  2.3130000E-02    3.2571179E-10
  2.3165001E-02   -4.7504500E-10
  2.3200000E-02   -1.8452789E-10
  2.3235001E-02    2.7109719E-09
  2.3270000E-02    1.0968053E-09
  2.3305001E-02   -3.0684746E-09
  2.3340000E-02   -1.4568965E-09
  2.3375001E-02    1.2661975E-09
  2.3410000E-02   -5.1988808E-10
  2.3445001E-02    1.8379206E-10
  2.3480000E-02    3.7623797E-09
  2.3514999E-02    1.5731014E-09
  2.3550000E-02   -2.3622542E-09
  2.3584999E-02   -4.7714332E-10
  2.3620000E-02    6.2143912E-10
  2.3654999E-02   -2.3126112E-09
  2.3690000E-02   -1.1256238E-09
  2.3724999E-02    2.7009648E-09
  2.3760000E-02    1.0852746E-09
  2.3794999E-02   -2.0869995E-09
  2.3830000E-02   -1.4740031E-09
  2.3864999E-02   -9.4837083E-10
  2.3900000E-02   -1.5856223E-09
  2.3934999E-02   -5.9691113E-10
  2.3970000E-02    5.6664662E-10
  2.4005000E-02    1.0060548E-09
  2.4040001E-02    8.7438784E-10
  2.4075000E-02   -1.4735809E-09
  2.4110001E-02   -2.4524649E-09
  2.4145000E-02    1.1133335E-09
  2.4180001E-02    1.9674535E-09
  2.4215000E-02   -1.6453831E-09
  2.4250001E-02   -7.3119477E-10
  2.4285000E-02    2.2583850E-09
  2.4320001E-02   -7.3188783E-10
  2.4355000E-02   -2.6584859E-09
  2.4390001E-02    7.6724610E-10
  2.4425000E-02    5.9486172E-10
  2.4460001E-02   -1.7316102E-09
  2.4495000E-02    7.8961021E-10
  2.4529999E-02    2.0607367E-09
  2.4565000E-02    3.8431716E-10
  2.4599999E-02    2.2311528E-09
  2.4635000E-02    2.4384086E-09
  2.4669999E-02   -1.5418347E-09
  2.4705000E-02   -1.2649434E-10
  2.4739999E-02    3.2697332E-09
  2.4775000E-02    3.3501796E-10
  2.4809999E-02   -5.7617316E-10
  2.4845000E-02    2.4700622E-09
  2.4879999E-02   -7.2837214E-12
  2.4915000E-02   -2.1772926E-09
  2.4950000E-02    2.5844846E-09
  2.4985000E-02    3.9808365E-09
  2.5020000E-02    2.1953933E-10
  2.5055001E-02    3.4973030E-10
  2.5090000E-02    1.6259371E-09
  2.5125001E-02   -1.5486090E-10
  2.5160000E-02    3.2995706E-10
  2.5195001E-02    3.0374689E-09
  2.5230000E-02    2.5437463E-09
  2.5265001E-02    2.4229899E-11
  2.5300000E-02   -3.6905781E-10
  2.5335001E-02    1.4133290E-09
  2.5370000E-02    2.0851516E-09
  2.5405001E-02    3.2965974E-10
  2.5440000E-02    1.2788988E-10
  2.5474999E-02    2.8589642E-09
  2.5510000E-02    3.0242064E-09
  2.5544999E-02   -3.5308086E-11
  2.5580000E-02   -4.6788845E-10
  2.5614999E-02    1.4076548E-09
  2.5650000E-02    1.2303474E-09
  2.5684999E-02    1.7681064E-10
  2.5720000E-02    4.5977511E-10
  2.5754999E-02    8.8857816E-10
  2.5790000E-02    5.2029592E-10
  2.5824999E-02   -8.7494467E-10
  2.5860000E-02   -2.7448608E-09
  2.5895000E-02   -2.2702553E-09
  2.5930000E-02    6.1561117E-10
  2.5965000E-02    1.4696794E-09
  2.6000001E-02   -4.2370302E-10
  2.6035000E-02   -1.1030263E-09
  2.6070001E-02   -3.4922754E-10
  2.6105000E-02   -9.6297093E-10
  2.6140001E-02   -1.8390595E-09
  2.6175000E-02   -6.3336608E-10
  2.6210001E-02    4.0390541E-10
  2.6245000E-02   -1.0821256E-09
  2.6280001E-02   -2.1343629E-09
  2.6315000E-02   -1.1416466E-09
  2.6350001E-02   -1.3292581E-09
  2.6385000E-02   -1.9071029E-09
  2.6419999E-02   -1.0948150E-11
  2.6455000E-02   -1.5386249E-10
  2.6489999E-02   -3.6048990E-09
  2.6525000E-02   -2.4805042E-09
  2.6559999E-02    1.4003407E-09
  2.6595000E-02   -1.1706800E-09
  2.6629999E-02   -4.8040874E-09
  2.6665000E-02   -1.3598149E-09
  2.6699999E-02    1.7610676E-09
  2.6735000E-02   -1.1301243E-09
  2.6769999E-02   -3.4381855E-09
  2.6805000E-02   -1.8125680E-09
  2.6839999E-02   -2.3277019E-10
  2.6875000E-02   -6.5153538E-10
  2.6910000E-02   -1.1505678E-09
  2.6945001E-02   -2.1589278E-10
  2.6980000E-02    6.9212458E-10