 -4.8000002E-03    1.0000000E-24
 -4.7650002E-03    1.0000000E-24
 -4.7300002E-03    1.0000002E-24
 -4.6950001E-03    1.0000002E-24
 -4.6600001E-03    1.0000002E-24
 -4.6250001E-03    1.0000001E-24
 -4.5900000E-03    1.0000001E-24
 -4.5550000E-03    1.0000002E-24
 -4.5200000E-03    1.0000001E-24
 -4.4849999E-03    1.0000001E-24
 -4.4499999E-03    1.0000002E-24
 -4.4149999E-03    1.0000003E-24
 -4.3799998E-03    1.0000003E-24
 -4.3449998E-03    1.0000001E-24
 -4.3100002E-03    1.0000000E-24
 -4.2750002E-03    1.0000001E-24
 -4.2400002E-03    1.0000001E-24
 -4.2050001E-03    9.9999992E-25
 -4.1700001E-03    9.9999982E-25
 -4.1350001E-03    1.0000002E-24
 -4.1000000E-03    1.0000005E-24
 -4.0650000E-03    1.0000001E-24
 -4.0300000E-03    9.9999953E-25
 -3.9949999E-03    9.9999982E-25
 -3.9599999E-03    1.0000003E-24
 -3.9249999E-03    1.0000005E-24
 -3.8900001E-03    1.0000002E-24
 -3.8550000E-03    9.9999992E-25
 -3.8200000E-03    1.0000000E-24
 -3.7849999E-03    1.0000002E-24
 -3.7499999E-03    1.0000003E-24
 -3.7150001E-03    1.0000002E-24
 -3.6800001E-03    1.0000002E-24
 -3.6450000E-03    1.0000000E-24
 -3.6100000E-03    9.9999992E-25
 -3.5750000E-03    9.9999992E-25
 -3.5399999E-03    1.0000001E-24
 -3.5049999E-03    1.0000002E-24
 -3.4700001E-03    1.0000002E-24
 -3.4350001E-03    1.0000001E-24
 -3.4000000E-03    1.0000001E-24
 -3.3650000E-03    1.0000002E-24
 -3.3300000E-03    1.0000001E-24
 -3.2949999E-03    9.9999982E-25
 -3.2599999E-03    9.9999982E-25
 -3.2250001E-03    9.9999992E-25
 -3.1900001E-03    1.0000001E-24
 -3.1550000E-03    1.0000003E-24
 -3.1200000E-03    1.0000002E-24
 -3.0850000E-03    1.0000001E-24
 -3.0499999E-03    1.0000003E-24
 -3.0149999E-03    1.0000001E-24
 -2.9800001E-03    9.9999933E-25
 -2.9450001E-03    1.0000005E-24
 -2.9100000E-03    1.0000014E-24
 -2.8750000E-03    9.9999479E-25
 -2.8400000E-03    1.0000060E-24
 -2.8049999E-03    1.0000251E-24
 -2.7699999E-03    9.9992853E-25
 -2.7350001E-03    9.9996225E-25
 -2.7000001E-03    1.0004089E-24
 -2.6650000E-03    9.9974620E-25
 -2.6300000E-03    9.9842092E-25
 -2.5950000E-03    1.0023618E-24
 -2.5599999E-03    1.0044402E-24
 -2.5249999E-03    9.8858668E-25
 -2.4900001E-03    9.9089745E-25
 -2.4550001E-03    1.0406847E-24
 -2.4200000E-03    1.0138780E-24
 -2.3850000E-03    8.8011239E-25
 -2.3500000E-03    9.7406701E-25
 -2.3149999E-03    1.3229702E-24
 -2.2799999E-03    1.1240400E-24
 -2.2450001E-03    1.0407388E-25
 -2.2100001E-03    3.5007273E-25
 -2.1750000E-03    3.7442068E-24
 -2.1400000E-03    3.5818900E-24
 -2.1050000E-03   -7.8536538E-24
 -2.0699999E-03   -6.9674041E-24
 -2.0349999E-03    2.8472398E-23
 -2.0000001E-03    2.1149875E-23
 -1.9650001E-03   -7.6541293E-23
 -1.9300000E-03   -4.3720252E-23
 -1.8950000E-03    1.9656532E-22
 -1.8600000E-03    9.9122575E-23
 -1.8250000E-03   -4.4154481E-22
 -1.7900000E-03   -2.4598738E-22
 -1.7550000E-03    9.1717962E-22
 -1.7199999E-03    7.3169497E-22
 -1.6850000E-03   -1.7970630E-21
 -1.6500000E-03   -2.2543160E-21
 -1.6150000E-03    3.5122157E-21
 -1.5800000E-03    6.5689070E-21
 -1.5450000E-03   -7.0957516E-21
 -1.5100000E-03   -1.7408586E-20
 -1.4750001E-03    1.4835849E-20
 -1.4400000E-03    4.1945683E-20
 -1.4050000E-03   -3.0756488E-20
 -1.3700000E-03   -9.2928914E-20
 -1.3350000E-03    5.9864819E-20
 -1.3000000E-03    1.9246775E-19
 -1.2650000E-03   -1.0356504E-19
 -1.2300001E-03   -3.7925308E-19
 -1.1950000E-03    1.4745872E-19
 -1.1600000E-03    7.2226547E-19
 -1.1250000E-03   -1.3628272E-19
 -1.0900000E-03   -1.3430458E-18
 -1.0550000E-03   -7.0147223E-20
 -1.0200000E-03    2.4438073E-18
 -9.8500005E-04    7.6867154E-19
 -9.5000002E-04   -4.3266153E-18
 -9.1499998E-04   -2.5259569E-18
 -8.8000001E-04    7.3700957E-18
 -8.4499997E-04    6.3554660E-18
 -8.1000000E-04   -1.1905615E-17
 -7.7500002E-04   -1.3985905E-17
 -7.3999999E-04    1.7907838E-17
 -7.0500001E-04    2.8236707E-17
 -6.6999998E-04   -2.4381633E-17
 -6.3500000E-04   -5.3461427E-17
 -6.0000003E-04    2.8282539E-17
 -5.6499999E-04    9.5895690E-17
 -5.3000002E-04   -2.2752099E-17
 -4.9499999E-04   -1.6353183E-16
 -4.6000001E-04   -5.5802646E-18
 -4.2500001E-04    2.6484288E-16
 -3.9000000E-04    8.0392089E-17
 -3.5500000E-04   -4.0532755E-16
 -3.1999999E-04   -2.4039518E-16
 -2.8499999E-04    5.8050095E-16
 -2.5000001E-04    5.4413714E-16
 -2.1499999E-04   -7.6365859E-16
 -1.8000000E-04   -1.0728391E-15
 -1.4500000E-04    8.8660723E-16
 -1.1000000E-04    1.9274205E-15
 -7.5000004E-05   -8.1199183E-16
 -3.9999999E-05   -3.2133753E-15
 -4.9999999E-06    2.9768338E-16
  2.9999999E-05    5.0044532E-15
  6.5000000E-05    1.0420893E-15
  9.9999997E-05   -7.2743537E-15
  1.3499999E-04   -3.7675522E-15
  1.7000000E-04    9.7860241E-15
  2.0500000E-04    8.6165062E-15
  2.3999999E-04   -1.1930770E-14
  2.7500000E-04   -1.6449517E-14
  3.1000000E-04    1.2514986E-14
  3.4500001E-04    2.8090599E-14
  3.8000001E-04   -9.5081972E-15
  4.1499999E-04   -4.3994854E-14
  4.4999999E-04   -1.9323963E-16
  4.8500000E-04    6.3663593E-14
  5.2000000E-04    2.0860699E-14
  5.5499998E-04   -8.4761035E-14
  5.9000001E-04   -5.7684224E-14
  6.2499999E-04    1.0197866E-13
  6.6000002E-04    1.1594153E-13
  6.9500000E-04   -1.0581359E-13
  7.3000003E-04   -1.9935362E-13
  7.6500000E-04    8.1545068E-14
  7.9999998E-04    3.0739080E-13
  8.3500001E-04   -8.8880565E-15
  8.6999999E-04   -4.3131902E-13
  9.0500002E-04   -1.3680079E-13
  9.4000000E-04    5.4911517E-13
  9.7499997E-04    3.8046083E-13
  1.0100000E-03   -6.2030670E-13
  1.0450000E-03   -7.3924872E-13
  1.0800000E-03    5.8294689E-13
  1.1150000E-03    1.2104214E-12
  1.1500000E-03   -3.5533425E-13
  1.1849999E-03   -1.7565803E-12
  1.2200000E-03   -1.5553785E-13
  1.2550000E-03    2.2901850E-12
  1.2900000E-03    1.0369981E-12
  1.3250000E-03   -2.6595254E-12
  1.3600000E-03   -2.3419957E-12
  1.3950000E-03    2.6415003E-12
  1.4299999E-03    4.0457060E-12
  1.4650000E-03   -1.9529495E-12
  1.5000000E-03   -5.9918776E-12
  1.5350000E-03    2.9464845E-13
  1.5700000E-03    7.8467588E-12
  1.6050000E-03    2.5684088E-12
  1.6400000E-03   -9.0844138E-12
  1.6749999E-03   -6.7042387E-12
  1.7100000E-03    9.0163597E-12
  1.7450000E-03    1.1906955E-11
  1.7800000E-03   -6.8661661E-12
  1.8150000E-03   -1.7591865E-11
  1.8500000E-03    1.9020070E-12
  1.8850000E-03    2.2704654E-11
  1.9200000E-03    6.3383981E-12
  1.9550000E-03   -2.5708142E-11
  1.9900000E-03   -1.7730409E-11
  2.0250001E-03    2.4753094E-11
  2.0600001E-03    3.1259672E-11
  2.0949999E-03   -1.8072519E-11
  2.1299999E-03   -4.4905375E-11
  2.1650000E-03    4.4827679E-12
  2.2000000E-03    5.5777299E-11
  2.2350000E-03    1.6175282E-11
  2.2700001E-03   -6.0410468E-11
  2.3050001E-03   -4.2665656E-11
  2.3399999E-03    5.5167659E-11
  2.3749999E-03    7.1962193E-11
  2.4100000E-03   -3.6942900E-11
  2.4450000E-03   -9.8983766E-11
  2.4800000E-03    4.3403653E-12
  2.5150001E-03    1.1697911E-10
  2.5500001E-03    4.1031071E-11
  2.5849999E-03   -1.1888517E-10
  2.6199999E-03   -9.3966619E-11
  2.6550000E-03    9.9186825E-11
  2.6900000E-03    1.4619449E-10
  2.7250000E-03   -5.5382050E-11
  2.7600001E-03   -1.8751073E-10
  2.7950001E-03   -1.1168948E-11
  2.8299999E-03    2.0689024E-10
  2.8649999E-03    9.4377964E-11
  2.9000000E-03   -1.9399987E-10
  2.9350000E-03   -1.8242957E-10
  2.9700000E-03    1.4214954E-10
  3.0050001E-03    2.5813707E-10
  3.0400001E-03   -5.2282265E-11
  3.0749999E-03   -3.0239949E-10
  3.1099999E-03   -6.4638774E-11
  3.1450000E-03    3.0003930E-10
  3.1800000E-03    1.8929081E-10
  3.2150000E-03   -2.4459368E-10
  3.2500001E-03   -2.9875541E-10
  3.2850001E-03    1.3956303E-10
  3.3199999E-03    3.7090872E-10
  3.3549999E-03    2.4368129E-12
  3.3900000E-03   -3.8710551E-10
  3.4250000E-03   -1.5983005E-10
  3.4600000E-03    3.3579817E-10
  3.4950001E-03    3.0269351E-10
  3.5300001E-03   -2.1873185E-10
  3.5649999E-03   -3.9826134E-10
  3.5999999E-03    5.5531867E-11
  3.6350000E-03    4.2187914E-10
  3.6700000E-03    1.1948634E-10
  3.7050000E-03   -3.6692840E-10
  3.7400001E-03   -2.6824773E-10
  3.7750001E-03    2.4677851E-10
  3.8099999E-03    3.6061693E-10
  3.8449999E-03   -8.8802667E-11
  3.8800000E-03   -3.8050854E-10
  3.9149998E-03   -7.3678640E-11
  3.9499998E-03    3.2645947E-10
  3.9849998E-03    2.0683398E-10
  4.0199999E-03   -2.1132815E-10
  4.0549999E-03   -2.8048933E-10
  4.0899999E-03    6.3465525E-11
  4.1250000E-03    2.7586158E-10
  4.1600000E-03    7.5321548E-11
  4.1950000E-03   -1.9650546E-10
  4.2300001E-03   -1.6121886E-10
  4.2650001E-03    7.4172640E-11
  4.3000001E-03    1.6797978E-10
  4.3350002E-03    3.9548684E-11
  4.3700002E-03   -1.0442289E-10
  4.4049998E-03   -9.8648367E-11
  4.4399998E-03    1.2224785E-11
  4.4749998E-03    8.9274893E-11
  4.5099999E-03    6.1406449E-11
  4.5449999E-03   -2.9472820E-11
  4.5799999E-03   -8.5461672E-11
  4.6150000E-03   -4.6302462E-11
  4.6500000E-03    4.9641159E-11
  4.6850001E-03    9.4812574E-11
  4.7200001E-03    2.3418965E-11
  4.7550001E-03   -9.4064444E-11
  4.7900002E-03   -1.0099632E-10
  4.8250002E-03    4.6782155E-11
  4.8600002E-03    1.6832585E-10
  4.8949998E-03    6.5059243E-11
  4.9299998E-03   -1.6151643E-10
  4.9649999E-03   -1.8958896E-10
  4.9999999E-03    5.2401611E-11
  5.0349999E-03    2.2363818E-10
  5.0700000E-03    5.4101043E-11
  5.1050000E-03   -2.2425896E-10
  5.1400000E-03   -1.9897739E-10
  5.1750001E-03    1.1223435E-10
  5.2100001E-03    2.9046618E-10
  5.2450001E-03    1.2155418E-10
  5.2800002E-03   -1.2329941E-10
  5.3150002E-03   -8.7187903E-11
  5.3500002E-03    1.9082876E-10
  5.3849998E-03    3.3080394E-10
  5.4199998E-03    9.8795867E-11
  5.4549999E-03   -2.8427025E-10
  5.4899999E-03   -4.2590859E-10
  5.5249999E-03   -3.2557015E-10
  5.5600000E-03   -4.3048309E-10
  5.5950000E-03   -1.0010015E-09
  5.6300000E-03   -1.6928022E-09
  5.6650001E-03   -2.0750150E-09
  5.7000001E-03   -2.3276492E-09
  5.7350001E-03   -2.9846610E-09
  5.7700002E-03   -4.1350043E-09
  5.8050002E-03   -5.3914846E-09
  5.8400002E-03   -6.6119683E-09
  5.8749998E-03   -8.1573290E-09
  5.9099998E-03   -1.0403107E-08
  5.9449999E-03   -1.3400572E-08
  5.9799999E-03   -1.7036129E-08
  6.0149999E-03   -2.1223977E-08
  6.0500000E-03   -2.6039981E-08
  6.0850000E-03   -3.1906144E-08
  6.1200000E-03   -3.9352123E-08
  6.1550001E-03   -4.8337469E-08
  6.1900001E-03   -5.8354452E-08
  6.2250001E-03   -6.9618231E-08
  6.2600002E-03   -8.3407542E-08
  6.2950002E-03   -1.0058741E-07
  6.3299998E-03   -1.2071717E-07
  6.3649998E-03   -1.4357683E-07
  6.3999998E-03   -1.7060901E-07
  6.4349999E-03   -2.0360848E-07
  6.4699999E-03   -2.4290347E-07
  6.5049999E-03   -2.8829223E-07
  6.5400000E-03   -3.4100407E-07
  6.5750000E-03   -4.0320489E-07
  6.6100000E-03   -4.7618985E-07
  6.6450001E-03   -5.6057098E-07
  6.6800001E-03   -6.5781808E-07
  6.7150001E-03   -7.7035179E-07
  6.7500002E-03   -9.0055391E-07
  6.7850002E-03   -1.0507823E-06
  6.8199998E-03   -1.2240077E-06
  6.8549998E-03   -1.4237319E-06
  6.8899998E-03   -1.6537598E-06
  6.9249999E-03   -1.9184058E-06
  6.9599999E-03   -2.2223905E-06
  6.9949999E-03   -2.5706934E-06
  7.0300000E-03   -2.9691992E-06
  7.0650000E-03   -3.4248617E-06
  7.1000000E-03   -3.9445340E-06
  7.1350001E-03   -4.5349066E-06
  7.1700001E-03   -5.2045252E-06
  7.2050001E-03   -5.9643576E-06
  7.2400002E-03   -6.8255799E-06
  7.2750002E-03   -7.7988952E-06
  7.3099998E-03   -8.8970310E-06
  7.3449998E-03   -1.0135719E-05
  7.3799998E-03   -1.1531537E-05
  7.4149999E-03   -1.3101430E-05
  7.4499999E-03   -1.4864889E-05
  7.4850000E-03   -1.6843780E-05
  7.5200000E-03   -1.9060062E-05
  7.5550000E-03   -2.1536935E-05
  7.5900001E-03   -2.4301993E-05
  7.6250001E-03   -2.7385988E-05
  7.6600001E-03   -3.0819352E-05
  7.6950002E-03   -3.4633373E-05
  7.7300002E-03   -3.8864182E-05
  7.7650002E-03   -4.3552885E-05
  7.7999998E-03   -4.8742477E-05
  7.8349998E-03   -5.4476928E-05
  7.8699999E-03   -6.0803355E-05
  7.9049999E-03   -6.7773668E-05
  7.9399999E-03   -7.5444121E-05
  7.9750000E-03   -8.3873500E-05
  8.0100000E-03   -9.3121685E-05
  8.0450000E-03   -1.0325204E-04
  8.0800001E-03   -1.1433442E-04
  8.1150001E-03   -1.2644293E-04
  8.1500001E-03   -1.3965052E-04
  8.1850002E-03   -1.5403214E-04
  8.2200002E-03   -1.6967182E-04
  8.2550002E-03   -1.8665958E-04
  8.2900003E-03   -2.0508302E-04
  8.3250003E-03   -2.2502999E-04
  8.3600003E-03   -2.4659670E-04
  8.3950004E-03   -2.6988468E-04
  8.4300004E-03   -2.9499276E-04
  8.4650004E-03   -3.2202067E-04
  8.5000005E-03   -3.5107604E-04
  8.5349996E-03   -3.8226755E-04
  8.5699996E-03   -4.1569714E-04
  8.6049996E-03   -4.5146907E-04
  8.6399997E-03   -4.8969715E-04
  8.6749997E-03   -5.3049263E-04
  8.7099997E-03   -5.7395513E-04
  8.7449998E-03   -6.2018493E-04
  8.7799998E-03   -6.6928955E-04
  8.8149998E-03   -7.2137103E-04
  8.8499999E-03   -7.7651860E-04
  8.8849999E-03   -8.3481916E-04
  8.9199999E-03   -8.9636189E-04
  8.9550000E-03   -9.6122595E-04
  8.9900000E-03   -1.0294750E-03
  9.0250000E-03   -1.1011671E-03
  9.0600001E-03   -1.1763595E-03
  9.0950001E-03   -1.2550954E-03
  9.1300001E-03   -1.3373967E-03
  9.1650002E-03   -1.4232758E-03
  9.2000002E-03   -1.5127377E-03
  9.2350002E-03   -1.6057697E-03
  9.2700003E-03   -1.7023399E-03
  9.3050003E-03   -1.8023978E-03
  9.3400003E-03   -1.9058763E-03
  9.3750004E-03   -2.0126905E-03
  9.4100004E-03   -2.1227323E-03
  9.4450004E-03   -2.2358675E-03
  9.4799995E-03   -2.3519441E-03
  9.5149996E-03   -2.4707930E-03
  9.5499996E-03   -2.5922146E-03
  9.5849996E-03   -2.7159781E-03
  9.6199997E-03   -2.8418310E-03
  9.6549997E-03   -2.9695018E-03
  9.6899997E-03   -3.0986939E-03
  9.7249998E-03   -3.2290763E-03
  9.7599998E-03   -3.3602854E-03
  9.7949998E-03   -3.4919423E-03
  9.8299999E-03   -3.6236471E-03
  9.8649999E-03   -3.7549615E-03
  9.8999999E-03   -3.8854191E-03
  9.9350000E-03   -4.0145447E-03
  9.9700000E-03   -4.1418332E-03
  1.0005000E-02   -4.2667454E-03
  1.0040000E-02   -4.3887319E-03
  1.0075000E-02   -4.5072339E-03
  1.0110000E-02   -4.6216627E-03
  1.0145000E-02   -4.7314060E-03
  1.0180000E-02   -4.8358440E-03
  1.0215000E-02   -4.9343612E-03
  1.0250000E-02   -5.0263251E-03
  1.0285000E-02   -5.1110848E-03
  1.0320000E-02   -5.1879915E-03
  1.0355000E-02   -5.2564139E-03
  1.0390000E-02   -5.3157136E-03
  1.0425000E-02   -5.3652488E-03
  1.0460000E-02   -5.4043983E-03
  1.0495000E-02   -5.4325652E-03
  1.0530000E-02   -5.4491591E-03
  1.0565000E-02   -5.4536085E-03
  1.0600000E-02   -5.4453709E-03
  1.0635000E-02   -5.4239421E-03
  1.0670000E-02   -5.3888503E-03
  1.0705000E-02   -5.3396537E-03
  1.0740000E-02   -5.2759540E-03
  1.0775000E-02   -5.1974100E-03
  1.0810000E-02   -5.1037231E-03
  1.0845000E-02   -4.9946369E-03
  1.0880000E-02   -4.8699635E-03
  1.0915000E-02   -4.7295871E-03
  1.0950000E-02   -4.5734411E-03
  1.0985000E-02   -4.4015222E-03
  1.1020000E-02   -4.2138980E-03
  1.1055000E-02   -4.0107113E-03
  1.1090000E-02   -3.7921821E-03
  1.1125000E-02   -3.5586015E-03
  1.1160000E-02   -3.3103270E-03
  1.1195000E-02   -3.0478020E-03
  1.1230000E-02   -2.7715482E-03
  1.1265000E-02   -2.4821584E-03
  1.1300000E-02   -2.1803048E-03
  1.1335000E-02   -1.8667356E-03
  1.1370000E-02   -1.5422661E-03
  1.1405000E-02   -1.2077916E-03
  1.1440000E-02   -8.6427841E-04
  1.1475000E-02   -5.1274971E-04
  1.1510000E-02   -1.5429487E-04
  1.1545000E-02    2.0993564E-04
  1.1580000E-02    5.7874387E-04
  1.1615000E-02    9.5087045E-04
  1.1650000E-02    1.3250075E-03
  1.1685000E-02    1.6998298E-03
  1.1720000E-02    2.0739820E-03
  1.1755000E-02    2.4460668E-03
  1.1790000E-02    2.8146675E-03
  1.1825000E-02    3.1783564E-03
  1.1860000E-02    3.5357082E-03
  1.1895000E-02    3.8853118E-03
  1.1930000E-02    4.2257607E-03
  1.1965000E-02    4.5556561E-03
  1.2000000E-02    4.8736362E-03
  1.2035000E-02    5.1783770E-03
  1.2070000E-02    5.4685953E-03
  1.2105000E-02    5.7430649E-03
  1.2140000E-02    6.0006175E-03
  1.2175000E-02    6.2401434E-03
  1.2210000E-02    6.4606196E-03
  1.2245000E-02    6.6611082E-03
  1.2280000E-02    6.8407422E-03
  1.2315000E-02    6.9987518E-03
  1.2350000E-02    7.1344809E-03
  1.2385000E-02    7.2473758E-03
  1.2420000E-02    7.3369900E-03
  1.2455000E-02    7.4029858E-03
  1.2490000E-02    7.4451445E-03
  1.2525000E-02    7.4633737E-03
  1.2560000E-02    7.4576954E-03
  1.2595000E-02    7.4282475E-03
  1.2630000E-02    7.3753046E-03
  1.2665000E-02    7.2992719E-03
  1.2700000E-02    7.2006606E-03
  1.2735000E-02    7.0800930E-03
  1.2770000E-02    6.9383108E-03
  1.2805000E-02    6.7761787E-03
  1.2840000E-02    6.5946723E-03
  1.2875000E-02    6.3948622E-03
  1.2910000E-02    6.1779073E-03
  1.2945000E-02    5.9450623E-03
  1.2980000E-02    5.6976592E-03
  1.3015000E-02    5.4371064E-03
  1.3050000E-02    5.1648845E-03
  1.3085000E-02    4.8825229E-03
  1.3120000E-02    4.5915907E-03
  1.3155000E-02    4.2937021E-03
  1.3190000E-02    3.9905021E-03
  1.3225000E-02    3.6836376E-03
  1.3260000E-02    3.3747603E-03
  1.3295000E-02    3.0655188E-03
  1.3330000E-02    2.7575463E-03
  1.3365000E-02    2.4524564E-03
  1.3400000E-02    2.1518215E-03
  1.3435000E-02    1.8571462E-03
  1.3470000E-02    1.5698797E-03
  1.3505000E-02    1.2914238E-03
  1.3540000E-02    1.0230966E-03
  1.3575000E-02    7.6611922E-04
  1.3610000E-02    5.2162737E-04
  1.3645000E-02    2.9065661E-04
  1.3680000E-02    7.4129195E-05
  1.3715000E-02   -1.2714120E-04
  1.3750000E-02   -3.1246210E-04
  1.3785000E-02   -4.8126938E-04
  1.3820000E-02   -6.3311047E-04
  1.3855000E-02   -7.6765195E-04
  1.3890000E-02   -8.8469964E-04
  1.3925000E-02   -9.8419399E-04
  1.3960000E-02   -1.0661976E-03
  1.3995000E-02   -1.1308931E-03
  1.4030000E-02   -1.1785812E-03
  1.4065000E-02   -1.2096862E-03
  1.4100000E-02   -1.2247515E-03
  1.4135000E-02   -1.2244165E-03
  1.4170000E-02   -1.2094133E-03
  1.4205000E-02   -1.1805815E-03
  1.4240000E-02   -1.1388534E-03
  1.4275000E-02   -1.0852267E-03
  1.4310000E-02   -1.0207595E-03
  1.4345000E-02   -9.4656961E-04
  1.4380000E-02   -8.6382730E-04
  1.4415000E-02   -7.7374687E-04
  1.4450000E-02   -6.7756831E-04
  1.4485000E-02   -5.7653507E-04
  1.4520000E-02   -4.7189012E-04
  1.4555000E-02   -3.6487883E-04
  1.4590000E-02   -2.5673761E-04
  1.4625000E-02   -1.4867350E-04
  1.4660000E-02   -4.1850333E-05
  1.4695000E-02    6.2618274E-05
  1.4730000E-02    1.6367303E-04
  1.4765000E-02    2.6031202E-04
  1.4800000E-02    3.5160055E-04
  1.4835000E-02    4.3669168E-04
  1.4870000E-02    5.1483628E-04
  1.4905000E-02    5.8537105E-04
  1.4940000E-02    6.4770831E-04
  1.4975000E-02    7.0135616E-04
  1.5010000E-02    7.4594643E-04
  1.5045000E-02    7.8122929E-04
  1.5080000E-02    8.0704089E-04
  1.5115000E-02    8.2329719E-04
  1.5150000E-02    8.3002227E-04
  1.5185000E-02    8.2736445E-04
  1.5220000E-02    8.1557548E-04
  1.5255000E-02    7.9497905E-04
  1.5290000E-02    7.6597172E-04
  1.5325000E-02    7.2904828E-04
  1.5360000E-02    6.8479258E-04
  1.5395000E-02    6.3384388E-04
  1.5430000E-02    5.7689316E-04
  1.5465000E-02    5.1468576E-04
  1.5500000E-02    4.4800967E-04
  1.5535000E-02    3.7769481E-04
  1.5570000E-02    3.0460066E-04
  1.5605000E-02    2.2958936E-04
  1.5640000E-02    1.5352793E-04
  1.5675001E-02    7.7288722E-05
  1.5710000E-02    1.7217504E-06
  1.5745001E-02   -7.2344541E-05
  1.5780000E-02   -1.4409708E-04
  1.5814999E-02   -2.1277234E-04
  1.5850000E-02   -2.7766719E-04
  1.5884999E-02   -3.3811701E-04
  1.5920000E-02   -3.9350975E-04
  1.5954999E-02   -4.4330780E-04
  1.5990000E-02   -4.8704728E-04
  1.6024999E-02   -5.2434159E-04
  1.6060000E-02   -5.5488042E-04
  1.6094999E-02   -5.7842559E-04
  1.6130000E-02   -5.9482490E-04
  1.6164999E-02   -6.0401560E-04
  1.6200000E-02   -6.0601719E-04
  1.6235000E-02   -6.0093036E-04
  1.6270000E-02   -5.8892672E-04
  1.6305000E-02   -5.7025033E-04
  1.6340001E-02   -5.4523331E-04
  1.6375000E-02   -5.1427574E-04
  1.6410001E-02   -4.7782206E-04
  1.6445000E-02   -4.3638115E-04
  1.6480001E-02   -3.9052707E-04
  1.6515000E-02   -3.4086866E-04
  1.6550001E-02   -2.8803924E-04
  1.6585000E-02   -2.3269943E-04
  1.6620001E-02   -1.7554018E-04
  1.6655000E-02   -1.1727324E-04
  1.6690001E-02   -5.8598896E-05
  1.6725000E-02   -2.0435431E-07
  1.6759999E-02    5.7214060E-05
  1.6795000E-02    1.1297857E-04
  1.6829999E-02    1.6646030E-04
  1.6865000E-02    2.1706281E-04
  1.6899999E-02    2.6422096E-04
  1.6935000E-02    3.0741797E-04
  1.6969999E-02    3.4618861E-04
  1.7005000E-02    3.8013098E-04
  1.7039999E-02    4.0891062E-04
  1.7075000E-02    4.3225309E-04
  1.7109999E-02    4.4995468E-04
  1.7145000E-02    4.6188044E-04
  1.7180000E-02    4.6795275E-04
  1.7215000E-02    4.6817344E-04
  1.7250000E-02    4.6262753E-04
  1.7285001E-02    4.5145914E-04
  1.7320000E-02    4.3487927E-04
  1.7355001E-02    4.1316490E-04
  1.7390000E-02    3.8663606E-04
  1.7425001E-02    3.5567366E-04
  1.7460000E-02    3.2072904E-04
  1.7495001E-02    2.8228498E-04
  1.7530000E-02    2.4084456E-04
  1.7565001E-02    1.9694651E-04
  1.7600000E-02    1.5116241E-04
  1.7635001E-02    1.0409171E-04
  1.7670000E-02    5.6342913E-05
  1.7704999E-02    8.5045076E-06
  1.7740000E-02   -3.8846549E-05
  1.7774999E-02   -8.5127584E-05
  1.7810000E-02   -1.2976516E-04
  1.7844999E-02   -1.7221802E-04
  1.7880000E-02   -2.1198942E-04
  1.7914999E-02   -2.4862343E-04
  1.7950000E-02   -2.8169624E-04
  1.7984999E-02   -3.1083205E-04
  1.8020000E-02   -3.3571420E-04
  1.8054999E-02   -3.5607503E-04
  1.8090000E-02   -3.7170836E-04
  1.8124999E-02   -3.8248074E-04
  1.8160000E-02   -3.8830933E-04
  1.8195000E-02   -3.8916417E-04
  1.8230001E-02   -3.8509216E-04
  1.8265000E-02   -3.7620764E-04
  1.8300001E-02   -3.6267733E-04
  1.8335000E-02   -3.4472000E-04
  1.8370001E-02   -3.2260313E-04
  1.8405000E-02   -2.9665022E-04
  1.8440001E-02   -2.6724092E-04
  1.8475000E-02   -2.3478609E-04
  1.8510001E-02   -1.9972453E-04
  1.8545000E-02   -1.6253346E-04
  1.8580001E-02   -1.2371270E-04
  1.8615000E-02   -8.3772436E-05
  1.8650001E-02   -4.3238164E-05
  1.8685000E-02   -2.6373509E-06
  1.8719999E-02    3.7514339E-05
  1.8755000E-02    7.6705197E-05
  1.8789999E-02    1.1443254E-04
  1.8825000E-02    1.5022619E-04
  1.8859999E-02    1.8365211E-04
  1.8895000E-02    2.1430073E-04
  1.8929999E-02    2.4179553E-04
  1.8965000E-02    2.6581209E-04
  1.8999999E-02    2.8607601E-04
  1.9035000E-02    3.0235975E-04
  1.9069999E-02    3.1449203E-04
  1.9105000E-02    3.2235318E-04
  1.9140000E-02    3.2587376E-04
  1.9175000E-02    3.2505408E-04
  1.9210000E-02    3.1995680E-04
  1.9245001E-02    3.1068287E-04
  1.9280000E-02    2.9738536E-04
  1.9315001E-02    2.8027879E-04
  1.9350000E-02    2.5962025E-04
  1.9385001E-02    2.3571467E-04
  1.9420000E-02    2.0891659E-04
  1.9455001E-02    1.7960001E-04
  1.9490000E-02    1.4816193E-04
  1.9525001E-02    1.1504244E-04
  1.9560000E-02    8.0700491E-05
  1.9595001E-02    4.5595098E-05
  1.9630000E-02    1.0196719E-05
  1.9664999E-02   -2.5022884E-05
  1.9700000E-02   -5.9602236E-05
  1.9734999E-02   -9.3084091E-05
  1.9770000E-02   -1.2503139E-04
  1.9804999E-02   -1.5504195E-04
  1.9840000E-02   -1.8273373E-04
  1.9874999E-02   -2.0775037E-04
  1.9910000E-02   -2.2978446E-04
  1.9944999E-02   -2.4857069E-04
  1.9980000E-02   -2.6388073E-04
  2.0014999E-02   -2.7554366E-04
  2.0050000E-02   -2.8344357E-04
  2.0085000E-02   -2.8750001E-04
  2.0120000E-02   -2.8768048E-04
  2.0155000E-02   -2.8401992E-04
  2.0190001E-02   -2.7660732E-04
  2.0225000E-02   -2.6557231E-04
  2.0260001E-02   -2.5109324E-04
  2.0295000E-02   -2.3339530E-04
  2.0330001E-02   -2.1273800E-04
  2.0365000E-02   -1.8941962E-04
  2.0400001E-02   -1.6378246E-04
  2.0435000E-02   -1.3619807E-04
  2.0470001E-02   -1.0705355E-04
  2.0505000E-02   -7.6750708E-05
  2.0540001E-02   -4.5705030E-05
  2.0575000E-02   -1.4344479E-05
  2.0609999E-02    1.6894404E-05
  2.0645000E-02    4.7581831E-05
  2.0679999E-02    7.7306628E-05
  2.0715000E-02    1.0567597E-04
  2.0749999E-02    1.3231764E-04
  2.0785000E-02    1.5688181E-04
  2.0819999E-02    1.7903988E-04
  2.0855000E-02    1.9849748E-04
  2.0889999E-02    2.1501014E-04
  2.0925000E-02    2.2837921E-04
  2.0959999E-02    2.3844668E-04
  2.0995000E-02    2.4509997E-04
  2.1029999E-02    2.4826944E-04
  2.1065000E-02    2.4792438E-04
  2.1100000E-02    2.4408838E-04
  2.1135001E-02    2.3685013E-04
  2.1170000E-02    2.2634510E-04
  2.1205001E-02    2.1273496E-04
  2.1240000E-02    1.9621728E-04
  2.1275001E-02    1.7703870E-04
  2.1310000E-02    1.5548665E-04
  2.1345001E-02    1.3188412E-04
  2.1380000E-02    1.0658356E-04
  2.1415001E-02    7.9941652E-05
  2.1450000E-02    5.2317875E-05
  2.1485001E-02    2.4103641E-05
  2.1520000E-02   -4.2847091E-06
  2.1555001E-02   -3.2440068E-05
  2.1590000E-02   -5.9972674E-05
  2.1624999E-02   -8.6511711E-05
  2.1660000E-02   -1.1170610E-04
  2.1694999E-02   -1.3520804E-04
  2.1730000E-02   -1.5668139E-04
  2.1764999E-02   -1.7583412E-04
  2.1800000E-02   -1.9241769E-04
  2.1834999E-02   -2.0621638E-04
  2.1870000E-02   -2.1705974E-04
  2.1904999E-02   -2.2482174E-04
  2.1940000E-02   -2.2940690E-04
  2.1974999E-02   -2.3076027E-04
  2.2010000E-02   -2.2888396E-04
  2.2045000E-02   -2.2383391E-04
  2.2080000E-02   -2.1570656E-04
  2.2115000E-02   -2.0463526E-04
  2.2150001E-02   -1.9079381E-04
  2.2185000E-02   -1.7439338E-04
  2.2220001E-02   -1.5568284E-04
  2.2255000E-02   -1.3495177E-04
  2.2290001E-02   -1.1251138E-04
  2.2325000E-02   -8.8680892E-05
  2.2360001E-02   -6.3805353E-05
  2.2395000E-02   -3.8251444E-05
  2.2430001E-02   -1.2382410E-05
  2.2465000E-02    1.3433323E-05
  2.2500001E-02    3.8820253E-05
  2.2535000E-02    6.3421183E-05
  2.2569999E-02    8.6895699E-05
  2.2605000E-02    1.0891663E-04
  2.2639999E-02    1.2918771E-04
  2.2675000E-02    1.4743328E-04
  2.2709999E-02    1.6339087E-04
  2.2745000E-02    1.7684414E-04
  2.2779999E-02    1.8762973E-04
  2.2815000E-02    1.9561560E-04
  2.2849999E-02    2.0070681E-04
  2.2885000E-02    2.0285121E-04
  2.2919999E-02    2.0203182E-04
  2.2955000E-02    1.9827551E-04
  2.2990000E-02    1.9165745E-04
  2.3025000E-02    1.8228969E-04
  2.3060000E-02    1.7032302E-04
  2.3095001E-02    1.5595138E-04
  2.3130000E-02    1.3939713E-04
  2.3165001E-02    1.2090316E-04
  2.3200000E-02    1.0074413E-04
  2.3235001E-02    7.9226178E-05
  2.3270000E-02    5.6666297E-05
  2.3305001E-02    3.3387361E-05
  2.3340000E-02    9.7273951E-06
  2.3375001E-02   -1.3969370E-05
  2.3410000E-02   -3.7360933E-05
  2.3445001E-02   -6.0104714E-05
  2.3480000E-02   -8.1876758E-05
  2.3514999E-02   -1.0238359E-04
  2.3550000E-02   -1.2133738E-04
  2.3584999E-02   -1.3845773E-04
  2.3620000E-02   -1.5350633E-04
  2.3654999E-02   -1.6628686E-04
  2.3690000E-02   -1.7662690E-04
  2.3724999E-02   -1.8438077E-04
  2.3760000E-02   -1.8944188E-04
  2.3794999E-02   -1.9175568E-04
  2.3830000E-02   -1.9131434E-04
  2.3864999E-02   -1.8813521E-04
  2.3900000E-02   -1.8226892E-04
  2.3934999E-02   -1.7381491E-04
  2.3970000E-02   -1.6290710E-04
  2.4005000E-02   -1.4971341E-04
  2.4040001E-02   -1.3444587E-04
  2.4075000E-02   -1.1734154E-04
  2.4110001E-02   -9.8652934E-05
  2.4145000E-02   -7.8661731E-05
  2.4180001E-02   -5.7671754E-05
  2.4215000E-02   -3.5995312E-05
  2.4250001E-02   -1.3953199E-05
  2.4285000E-02    8.1250055E-06
  2.4320001E-02    2.9904319E-05
  2.4355000E-02    5.1058578E-05
  2.4390001E-02    7.1282870E-05
  2.4425000E-02    9.0283851E-05
  2.4460001E-02    1.0778052E-04
  2.4495000E-02    1.2352059E-04
  2.4529999E-02    1.3727593E-04
  2.4565000E-02    1.4884198E-04
  2.4599999E-02    1.5805537E-04
  2.4635000E-02    1.6479343E-04
  2.4669999E-02    1.6896584E-04
  2.4705000E-02    1.7051803E-04
  2.4739999E-02    1.6943493E-04
  2.4775000E-02    1.6575053E-04
  2.4809999E-02    1.5954248E-04
  2.4845000E-02    1.5090847E-04
  2.4879999E-02    1.3998085E-04
  2.4915000E-02    1.2694746E-04
  2.4950000E-02    1.1202187E-04
  2.4985000E-02    9.5432224E-05
  2.5020000E-02    7.7443998E-05
  2.5055001E-02    5.8344889E-05
  2.5090000E-02    3.8426009E-05
  2.5125001E-02    1.7995177E-05
  2.5160000E-02   -2.6277228E-06
  2.5195001E-02   -2.3125896E-05
  2.5230000E-02   -4.3185395E-05
  2.5265001E-02   -6.2502251E-05
  2.5300000E-02   -8.0786733E-05
  2.5335001E-02   -9.7759133E-05
  2.5370000E-02   -1.1316153E-04
  2.5405001E-02   -1.2676953E-04
  2.5440000E-02   -1.3838994E-04
  2.5474999E-02   -1.4785660E-04
  2.5510000E-02   -1.5502819E-04
  2.5544999E-02   -1.5980174E-04
  2.5580000E-02   -1.6212664E-04
  2.5614999E-02   -1.6198659E-04
  2.5650000E-02   -1.5938966E-04
  2.5684999E-02   -1.5438792E-04
  2.5720000E-02   -1.4707512E-04
  2.5754999E-02   -1.3757613E-04
  2.5790000E-02   -1.2605365E-04
  2.5824999E-02   -1.1269936E-04
  2.5860000E-02   -9.7726144E-05
  2.5895000E-02   -8.1377126E-05
  2.5930000E-02   -6.3911742E-05
  2.5965000E-02   -4.5595298E-05
  2.6000001E-02   -2.6715692E-05
  2.6035000E-02   -7.5738844E-06
  2.6070001E-02    1.1536944E-05
  2.6105000E-02    3.0325251E-05
  2.6140001E-02    4.8506728E-05
  2.6175000E-02    6.5815017E-05
  2.6210001E-02    8.1989754E-05
  2.6245000E-02    9.6783158E-05
  2.6280001E-02    1.0997825E-04
  2.6315000E-02    1.2138337E-04
  2.6350001E-02    1.3083489E-04
  2.6385000E-02    1.3820626E-04
  2.6419999E-02    1.4339742E-04
  2.6455000E-02    1.4633799E-04
  2.6489999E-02    1.4699875E-04
  2.6525000E-02    1.4538184E-04
  2.6559999E-02    1.4151947E-04
  2.6595000E-02    1.3548284E-04
  2.6629999E-02    1.2737494E-04
  2.6665000E-02    1.1732965E-04
  2.6699999E-02    1.0551436E-04
  2.6735000E-02    9.2114795E-05
  2.6769999E-02    7.7335375E-05
  2.6805000E-02    6.1411411E-05
  2.6839999E-02    4.4594501E-05
  2.6875000E-02    2.7139093E-05
  2.6910000E-02    9.3079443E-06
  2.6945001E-02   -8.6310492E-06
  2.6980000E-02   -2.6408294E-05