 -4.8000002E-03    1.0000000E-24
 -4.7650002E-03    1.0000000E-24
 -4.7300002E-03    1.0000001E-24
 -4.6950001E-03    1.0000002E-24
 -4.6600001E-03    1.0000001E-24
 -4.6250001E-03    1.0000001E-24
 -4.5900000E-03    1.0000001E-24
 -4.5550000E-03    1.0000001E-24
 -4.5200000E-03    1.0000001E-24
 -4.4849999E-03    1.0000002E-24
 -4.4499999E-03    1.0000001E-24
 -4.4149999E-03    1.0000001E-24
 -4.3799998E-03    1.0000002E-24
 -4.3449998E-03    1.0000002E-24
 -4.3100002E-03    1.0000001E-24
 -4.2750002E-03    1.0000000E-24
 -4.2400002E-03    9.9999982E-25
 -4.2050001E-03    9.9999982E-25
 -4.1700001E-03    1.0000001E-24
 -4.1350001E-03    1.0000001E-24
 -4.1000000E-03    1.0000001E-24
 -4.0650000E-03    9.9999992E-25
 -4.0300000E-03    9.9999982E-25
 -3.9949999E-03    1.0000000E-24
 -3.9599999E-03    1.0000001E-24
 -3.9249999E-03    1.0000002E-24
 -3.8900001E-03    1.0000002E-24
 -3.8550000E-03    1.0000001E-24
 -3.8200000E-03    9.9999992E-25
 -3.7849999E-03    1.0000000E-24
 -3.7499999E-03    1.0000004E-24
 -3.7150001E-03    1.0000004E-24
 -3.6800001E-03    1.0000000E-24
 -3.6450000E-03    9.9999972E-25
 -3.6100000E-03    9.9999992E-25
 -3.5750000E-03    9.9999992E-25
 -3.5399999E-03    9.9999982E-25
 -3.5049999E-03    1.0000003E-24
 -3.4700001E-03    1.0000006E-24
 -3.4350001E-03    1.0000002E-24
 -3.4000000E-03    9.9999982E-25
 -3.3650000E-03    9.9999992E-25
 -3.3300000E-03    9.9999992E-25
 -3.2949999E-03    9.9999972E-25
 -3.2599999E-03    9.9999982E-25
 -3.2250001E-03    1.0000003E-24
 -3.1900001E-03    1.0000004E-24
 -3.1550000E-03    1.0000001E-24
 -3.1200000E-03    9.9999982E-25
 -3.0850000E-03    9.9999982E-25
 -3.0499999E-03    1.0000000E-24
 -3.0149999E-03    1.0000003E-24
 -2.9800001E-03    1.0000004E-24
 -2.9450001E-03    1.0000001E-24
 -2.9100000E-03    9.9999982E-25
 -2.8750000E-03    9.9999992E-25
 -2.8400000E-03    1.0000000E-24
 -2.8049999E-03    1.0000002E-24
 -2.7699999E-03    1.0000001E-24
 -2.7350001E-03    1.0000001E-24
 -2.7000001E-03    1.0000002E-24
 -2.6650000E-03    1.0000000E-24
 -2.6300000E-03    1.0000000E-24
 -2.5950000E-03    1.0000004E-24
 -2.5599999E-03    1.0000007E-24
 -2.5249999E-03    1.0000005E-24
 -2.4900001E-03    1.0000001E-24
 -2.4550001E-03    9.9999992E-25
 -2.4200000E-03    9.9999982E-25
 -2.3850000E-03    9.9999972E-25
 -2.3500000E-03    9.9999982E-25
 -2.3149999E-03    1.0000001E-24
 -2.2799999E-03    1.0000003E-24
 -2.2450001E-03    9.9999992E-25
 -2.2100001E-03    9.9999933E-25
 -2.1750000E-03    1.0000018E-24
 -2.1400000E-03    1.0000027E-24
 -2.1050000E-03    9.9999361E-25
 -2.0699999E-03    9.9999469E-25
 -2.0349999E-03    1.0000214E-24
 -2.0000001E-03    1.0000124E-24
 -1.9650001E-03    9.9993731E-25
 -1.9300000E-03    9.9996610E-25
 -1.8950000E-03    1.0001849E-24
 -1.8600000E-03    1.0001091E-24
 -1.8250000E-03    9.9944604E-25
 -1.7900000E-03    9.9966840E-25
 -1.7550000E-03    1.0016376E-24
 -1.7199999E-03    1.0008817E-24
 -1.6850000E-03    9.9546496E-25
 -1.6500000E-03    9.9782562E-25
 -1.6150000E-03    1.0113219E-24
 -1.5800000E-03    1.0059777E-24
 -1.5450000E-03    9.7479069E-25
 -1.5100000E-03    9.7917577E-25
 -1.4750001E-03    1.0515650E-24
 -1.4400000E-03    1.0808172E-24
 -1.4050000E-03    8.9319318E-25
 -1.3700000E-03    7.0373709E-25
 -1.3350000E-03    1.2583779E-24
 -1.3000000E-03    1.9639889E-24
 -1.2650000E-03    2.5236479E-25
 -1.2300001E-03   -1.7668404E-24
 -1.1950000E-03    3.2752678E-24
 -1.1600000E-03    8.0872292E-24
 -1.1250000E-03   -5.5116205E-24
 -1.0900000E-03   -1.5497373E-23
 -1.0550000E-03    1.7763810E-23
 -1.0200000E-03    3.6722008E-23
 -9.8500005E-04   -3.7457012E-23
 -9.5000002E-04   -7.3079822E-23
 -9.1499998E-04    7.9797963E-23
 -8.8000001E-04    1.5289703E-22
 -8.4499997E-04   -1.4405121E-22
 -8.1000000E-04   -3.1465286E-22
 -7.7500002E-04    2.4266063E-22
 -7.3999999E-04    6.6997061E-22
 -7.0500001E-04   -3.6662968E-22
 -6.6999998E-04   -1.4266048E-21
 -6.3500000E-04    5.1578457E-22
 -6.0000003E-04    3.0061589E-21
 -5.6499999E-04   -6.5863701E-22
 -5.3000002E-04   -6.1324739E-21
 -4.9499999E-04    7.2079551E-22
 -4.6000001E-04    1.2023296E-20
 -4.2500001E-04   -4.0486861E-22
 -3.9000000E-04   -2.2572318E-20
 -3.5500000E-04   -1.1534772E-21
 -3.1999999E-04    4.0684662E-20
 -2.8499999E-04    6.2002910E-21
 -2.5000001E-04   -7.0682622E-20
 -2.1499999E-04   -1.9742326E-20
 -1.8000000E-04    1.1890531E-19
 -1.4500000E-04    5.1869882E-20
 -1.1000000E-04   -1.9419858E-19
 -7.5000004E-05   -1.2120002E-19
 -3.9999999E-05    3.0789405E-19
 -4.9999999E-06    2.5998930E-19
  2.9999999E-05   -4.7208573E-19
  6.5000000E-05   -5.2140017E-19
  9.9999997E-05    6.9458961E-19
  1.3499999E-04    9.8978778E-19
  1.7000000E-04   -9.6794814E-19
  2.0500000E-04   -1.7943955E-18
  2.3999999E-04    1.2491919E-18
  2.7500000E-04    3.1260841E-18
  3.1000000E-04   -1.4255706E-18
  3.4500001E-04   -5.2542562E-18
  3.8000001E-04    1.2599333E-18
  4.1499999E-04    8.5375751E-18
  4.4999999E-04   -3.0699790E-19
  4.8500000E-04   -1.3416291E-17
  5.2000000E-04   -2.2099871E-18
  5.5499998E-04    2.0366416E-17
  5.9000001E-04    7.5727839E-18
  6.2499999E-04   -2.9784990E-17
  6.6000002E-04   -1.7797603E-17
  6.9500000E-04    4.1761533E-17
  7.3000003E-04    3.5915411E-17
  7.6500000E-04   -5.5671148E-17
  7.9999998E-04   -6.6275716E-17
  8.3500001E-04    6.9501508E-17
  8.6999999E-04    1.1481132E-16
  9.0500002E-04   -7.8797000E-17
  9.4000000E-04   -1.8913904E-16
  9.7499997E-04    7.5083667E-17
  1.0100000E-03    2.9827895E-16
  1.0450000E-03   -4.3624619E-17
  1.0800000E-03   -4.5162161E-16
  1.1150000E-03   -3.9599346E-17
  1.1500000E-03    6.5656176E-16
  1.1849999E-03    2.1167304E-16
  1.2200000E-03   -9.1393500E-16
  1.2550000E-03   -5.2700431E-16
  1.2900000E-03    1.2100383E-15
  1.3250000E-03    1.0611933E-15
  1.3600000E-03   -1.5037064E-15
  1.3950000E-03   -1.9127118E-15
  1.4299999E-03    1.7067739E-15
  1.4650000E-03    3.1991124E-15
  1.5000000E-03   -1.6565492E-15
  1.5350000E-03   -5.0424028E-15
  1.5700000E-03    1.0802434E-15
  1.6050000E-03    7.5354821E-15
  1.6400000E-03    4.4555013E-16
  1.6749999E-03   -1.0678853E-14
  1.7100000E-03   -3.5312490E-15
  1.7450000E-03    1.4275697E-14
  1.7800000E-03    8.9882495E-15
  1.8150000E-03   -1.7775798E-14
  1.8500000E-03   -1.7790872E-14
  1.8850000E-03    2.0066697E-14
  1.9200000E-03    3.0943838E-14
  1.9550000E-03   -1.9225962E-14
  1.9900000E-03   -4.9199871E-14
  2.0250001E-03    1.2276168E-14
  2.0600001E-03    7.2562880E-14
  2.0949999E-03    4.9677538E-15
  2.1299999E-03   -9.9521018E-14
  2.1650000E-03   -3.7800170E-14
  2.2000000E-03    1.2600989E-13
  2.2350000E-03    9.2051631E-14
  2.2700001E-03   -1.4421731E-13
  2.3050001E-03   -1.7279701E-13
  2.3399999E-03    1.4149279E-13
  2.3749999E-03    2.8214887E-13
  2.4100000E-03   -9.9771137E-14
  2.4450000E-03   -4.1602412E-13
  2.4800000E-03   -3.8917687E-15
  2.5150001E-03    5.5994630E-13
  2.5500001E-03    1.9482318E-13
  2.5849999E-03   -6.8435345E-13
  2.6199999E-03   -4.9523878E-13
  2.6550000E-03    7.4068887E-13
  2.6900000E-03    9.1501719E-13
  2.7250000E-03   -6.6047065E-13
  2.7600001E-03   -1.4391029E-12
  2.7950001E-03    3.5988275E-13
  2.8299999E-03    2.0133454E-12
  2.8649999E-03    2.4809644E-13
  2.9000000E-03   -2.5316737E-12
  2.9350000E-03   -1.2328125E-12
  2.9700000E-03    2.8282140E-12
  3.0050001E-03    2.6154452E-12
  3.0400001E-03   -2.6798839E-12
  3.0749999E-03   -4.3296616E-12
  3.1099999E-03    1.8279644E-12
  3.1450000E-03    6.1797997E-12
  3.1800000E-03   -2.7103611E-14
  3.2150000E-03   -7.8116359E-12
  3.2500001E-03   -2.8778770E-12
  3.2850001E-03    8.7146132E-12
  3.3199999E-03    6.8597398E-12
  3.3549999E-03   -8.2678083E-12
  3.3900000E-03   -1.1620032E-11
  3.4250000E-03    5.8320180E-12
  3.4600000E-03    1.6519576E-11
  3.4950001E-03   -8.9036856E-13
  3.5300001E-03   -2.0547555E-11
  3.5649999E-03   -6.7568555E-12
  3.5999999E-03    2.2370529E-11
  3.6350000E-03    1.6760725E-11
  3.6700000E-03   -2.0517543E-11
  3.7050000E-03   -2.8030113E-11
  3.7400001E-03    1.3717585E-11
  3.7750001E-03    3.8687289E-11
  3.8099999E-03   -1.3162123E-12
  3.8449999E-03   -4.6236747E-11
  3.8800000E-03   -1.6351394E-11
  3.9149998E-03    4.7916247E-11
  3.9499998E-03    3.7703094E-11
  3.9849998E-03   -4.1177190E-11
  4.0199999E-03   -5.9780583E-11
  4.0549999E-03    2.4315376E-11
  4.0899999E-03    7.8336691E-11
  4.1250000E-03    2.7393407E-12
  4.1600000E-03   -8.8366515E-11
  4.1950000E-03   -3.7707091E-11
  4.2300001E-03    8.5209347E-11
  4.2650001E-03    7.5784601E-11
  4.3000001E-03   -6.5923877E-11
  4.3350002E-03   -1.1029890E-10
  4.3700002E-03    3.0333257E-11
  4.4049998E-03    1.3392258E-10
  4.4399998E-03    1.8585770E-11
  4.4749998E-03   -1.3993703E-10
  4.5099999E-03   -7.4739902E-11
  4.5449999E-03    1.2346815E-10
  4.5799999E-03    1.2919656E-10
  4.6150000E-03   -8.3017371E-11
  4.6500000E-03   -1.7119628E-10
  4.6850001E-03    2.2060680E-11
  4.7200001E-03    1.9054126E-10
  4.7550001E-03    5.0539722E-11
  4.7900002E-03   -1.8077861E-10
  4.8250002E-03   -1.2234648E-10
  4.8600002E-03    1.4131067E-10
  4.8949998E-03    1.8059847E-10
  4.9299998E-03   -7.7211286E-11
  4.9649999E-03   -2.1484139E-10
  4.9999999E-03   -2.2929586E-12
  5.0349999E-03    2.1809655E-10
  5.0700000E-03    8.4962960E-11
  5.1050000E-03   -1.8786160E-10
  5.1400000E-03   -1.5653102E-10
  5.1750001E-03    1.2790480E-10
  5.2100001E-03    2.0340687E-10
  5.2450001E-03   -4.9110410E-11
  5.2800002E-03   -2.1717823E-10
  5.3150002E-03   -3.3182162E-11
  5.3500002E-03    1.9767771E-10
  5.3849998E-03    1.0460809E-10
  5.4199998E-03   -1.5164354E-10
  5.4549999E-03   -1.5579257E-10
  5.4899999E-03    8.8366571E-11
  5.5249999E-03    1.8212401E-10
  5.5600000E-03   -1.6739755E-11
  5.5950000E-03   -1.8124047E-10
  5.6300000E-03   -5.4152689E-11
  5.6650001E-03    1.5243025E-10
  5.7000001E-03    1.1354413E-10
  5.7350001E-03   -9.9046923E-11
  5.7700002E-03   -1.5060403E-10
  5.8050002E-03    3.0126353E-11
  5.8400002E-03    1.5867810E-10
  5.8749998E-03    4.2437911E-11
  5.9099998E-03   -1.3670667E-10
  5.9449999E-03   -1.0787136E-10
  5.9799999E-03    8.6256793E-11
  6.0149999E-03    1.5582556E-10
  6.0500000E-03   -1.0667238E-11
  6.0850000E-03   -1.7399088E-10
  6.1200000E-03   -8.1144105E-11
  6.1550001E-03    1.5031390E-10
  6.1900001E-03    1.7168403E-10
  6.2250001E-03   -7.8973279E-11
  6.2600002E-03   -2.3570204E-10
  6.2950002E-03   -3.1352886E-11
  6.3299998E-03    2.4968155E-10
  6.3649998E-03    1.5622929E-10
  6.3999998E-03   -2.0496715E-10
  6.4349999E-03   -2.6892041E-10
  6.4699999E-03    1.0322930E-10
  6.5049999E-03    3.4068778E-10
  6.5400000E-03    4.0349935E-11
  6.5750000E-03   -3.4355543E-10
  6.6100000E-03   -1.8429894E-10
  6.6450001E-03    2.8582883E-10
  6.6800001E-03    3.0671993E-10
  6.7150001E-03   -1.7652903E-10
  6.7500002E-03   -3.9129811E-10
  6.7850002E-03    1.5523430E-11
  6.8199998E-03    3.8582734E-10
  6.8549998E-03    1.1748701E-10
  6.8899998E-03   -3.4469816E-10
  6.9249999E-03   -2.3788543E-10
  6.9599999E-03    2.6486754E-10
  6.9949999E-03    3.5166525E-10
  7.0300000E-03   -8.0933163E-11
  7.0650000E-03   -2.7991204E-10
  7.1000000E-03    8.2905523E-11
  7.1350001E-03    3.7280115E-10
  7.1700001E-03    9.1635165E-11
  7.2050001E-03   -2.8840119E-10
  7.2400002E-03   -1.8517671E-10
  7.2750002E-03    6.3180579E-11
  7.3099998E-03   -1.8166303E-10
  7.3449998E-03   -6.9956196E-10
  7.3799998E-03   -8.1717683E-10
  7.4149999E-03   -6.7337136E-10
  7.4499999E-03   -1.0173674E-09
  7.4850000E-03   -1.8323594E-09
  7.5200000E-03   -2.3149569E-09
  7.5550000E-03   -2.3774123E-09
  7.5900001E-03   -2.9677016E-09
  7.6250001E-03   -4.4769362E-09
  7.6600001E-03   -6.0189653E-09
  7.6950002E-03   -7.0006148E-09
  7.7300002E-03   -8.3194021E-09
  7.7650002E-03   -1.1006142E-08
  7.7999998E-03   -1.4545758E-08
  7.8349998E-03   -1.7774301E-08
  7.8699999E-03   -2.0917199E-08
  7.9049999E-03   -2.5400276E-08
  7.9399999E-03   -3.1753096E-08
  7.9750000E-03   -3.8995410E-08
  8.0100000E-03   -4.6428926E-08
  8.0450000E-03   -5.4984412E-08
  8.0800001E-03   -6.6124223E-08
  8.1150001E-03   -8.0097621E-08
  8.1500001E-03   -9.6165628E-08
  8.1850002E-03   -1.1431256E-07
  8.2200002E-03   -1.3582803E-07
  8.2550002E-03   -1.6203222E-07
  8.2900003E-03   -1.9321290E-07
  8.3250003E-03   -2.2928405E-07
  8.3600003E-03   -2.7092449E-07
  8.3950004E-03   -3.1949759E-07
  8.4300004E-03   -3.7626086E-07
  8.4650004E-03   -4.4224291E-07
  8.5000005E-03   -5.1861701E-07
  8.5349996E-03   -6.0675802E-07
  8.5699996E-03   -7.0833443E-07
  8.6049996E-03   -8.2575963E-07
  8.6399997E-03   -9.6200847E-07
  8.6749997E-03   -1.1195701E-06
  8.7099997E-03   -1.3003697E-06
  8.7449998E-03   -1.5073540E-06
  8.7799998E-03   -1.7452558E-06
  8.8149998E-03   -2.0189252E-06
  8.8499999E-03   -2.3318296E-06
  8.8849999E-03   -2.6874693E-06
  8.9199999E-03   -3.0916763E-06
  8.9550000E-03   -3.5521532E-06
  8.9900000E-03   -4.0760660E-06
  9.0250000E-03   -4.6696373E-06
  9.0600001E-03   -5.3404297E-06
  9.0950001E-03   -6.0988204E-06
  9.1300001E-03   -6.9566290E-06
  9.1650002E-03   -7.9252177E-06
  9.2000002E-03   -9.0159256E-06
  9.2350002E-03   -1.0242046E-05
  9.2700003E-03   -1.1619492E-05
  9.3050003E-03   -1.3165515E-05
  9.3400003E-03   -1.4897587E-05
  9.3750004E-03   -1.6833945E-05
  9.4100004E-03   -1.8994979E-05
  9.4450004E-03   -2.1403906E-05
  9.4799995E-03   -2.4086212E-05
  9.5149996E-03   -2.7068625E-05
  9.5499996E-03   -3.0379075E-05
  9.5849996E-03   -3.4048186E-05
  9.6199997E-03   -3.8110444E-05
  9.6549997E-03   -4.2603158E-05
  9.6899997E-03   -4.7564674E-05
  9.7249998E-03   -5.3035099E-05
  9.7599998E-03   -5.9058337E-05
  9.7949998E-03   -6.5682078E-05
  9.8299999E-03   -7.2956034E-05
  9.8649999E-03   -8.0931757E-05
  9.8999999E-03   -8.9664245E-05
  9.9350000E-03   -9.9211997E-05
  9.9700000E-03   -1.0963626E-04
  1.0005000E-02   -1.2100190E-04
  1.0040000E-02   -1.3337766E-04
  1.0075000E-02   -1.4683440E-04
  1.0110000E-02   -1.6144484E-04
  1.0145000E-02   -1.7728681E-04
  1.0180000E-02   -1.9444298E-04
  1.0215000E-02   -2.1299673E-04
  1.0250000E-02   -2.3303101E-04
  1.0285000E-02   -2.5463343E-04
  1.0320000E-02   -2.7789743E-04
  1.0355000E-02   -3.0291674E-04
  1.0390000E-02   -3.2978246E-04
  1.0425000E-02   -3.5858856E-04
  1.0460000E-02   -3.8943466E-04
  1.0495000E-02   -4.2241972E-04
  1.0530000E-02   -4.5763902E-04
  1.0565000E-02   -4.9518963E-04
  1.0600000E-02   -5.3517189E-04
  1.0635000E-02   -5.7768263E-04
  1.0670000E-02   -6.2281318E-04
  1.0705000E-02   -6.7065470E-04
  1.0740000E-02   -7.2129903E-04
  1.0775000E-02   -7.7483273E-04
  1.0810000E-02   -8.3133386E-04
  1.0845000E-02   -8.9087541E-04
  1.0880000E-02   -9.5352827E-04
  1.0915000E-02   -1.0193555E-03
  1.0950000E-02   -1.0884098E-03
  1.0985000E-02   -1.1607356E-03
  1.1020000E-02   -1.2363696E-03
  1.1055000E-02   -1.3153362E-03
  1.1090000E-02   -1.3976461E-03
  1.1125000E-02   -1.4832990E-03
  1.1160000E-02   -1.5722825E-03
  1.1195000E-02   -1.6645686E-03
  1.1230000E-02   -1.7601111E-03
  1.1265000E-02   -1.8588481E-03
  1.1300000E-02   -1.9607022E-03
  1.1335000E-02   -2.0655773E-03
  1.1370000E-02   -2.1733560E-03
  1.1405000E-02   -2.2839019E-03
  1.1440000E-02   -2.3970576E-03
  1.1475000E-02   -2.5126443E-03
  1.1510000E-02   -2.6304605E-03
  1.1545000E-02   -2.7502812E-03
  1.1580000E-02   -2.8718584E-03
  1.1615000E-02   -2.9949215E-03
  1.1650000E-02   -3.1191765E-03
  1.1685000E-02   -3.2443041E-03
  1.1720000E-02   -3.3699579E-03
  1.1755000E-02   -3.4957707E-03
  1.1790000E-02   -3.6213554E-03
  1.1825000E-02   -3.7462998E-03
  1.1860000E-02   -3.8701650E-03
  1.1895000E-02   -3.9924914E-03
  1.1930000E-02   -4.1128029E-03
  1.1965000E-02   -4.2306022E-03
  1.2000000E-02   -4.3453728E-03
  1.2035000E-02   -4.4565811E-03
  1.2070000E-02   -4.5636808E-03
  1.2105000E-02   -4.6661054E-03
  1.2140000E-02   -4.7632810E-03
  1.2175000E-02   -4.8546270E-03
  1.2210000E-02   -4.9395585E-03
  1.2245000E-02   -5.0174766E-03
  1.2280000E-02   -5.0877775E-03
  1.2315000E-02   -5.1498697E-03
  1.2350000E-02   -5.2031726E-03
  1.2385000E-02   -5.2470989E-03
  1.2420000E-02   -5.2810647E-03
  1.2455000E-02   -5.3045126E-03
  1.2490000E-02   -5.3169089E-03
  1.2525000E-02   -5.3177280E-03
  1.2560000E-02   -5.3064651E-03
  1.2595000E-02   -5.2826526E-03
  1.2630000E-02   -5.2458537E-03
  1.2665000E-02   -5.1956638E-03
  1.2700000E-02   -5.1317150E-03
  1.2735000E-02   -5.0536836E-03
  1.2770000E-02   -4.9612918E-03
  1.2805000E-02   -4.8543108E-03
  1.2840000E-02   -4.7325594E-03
  1.2875000E-02   -4.5959121E-03
  1.2910000E-02   -4.4443030E-03
  1.2945000E-02   -4.2777280E-03
  1.2980000E-02   -4.0962421E-03
  1.3015000E-02   -3.8999659E-03
  1.3050000E-02   -3.6890889E-03
  1.3085000E-02   -3.4638667E-03
  1.3120000E-02   -3.2246225E-03
  1.3155000E-02   -2.9717465E-03
  1.3190000E-02   -2.7057047E-03
  1.3225000E-02   -2.4270418E-03
  1.3260000E-02   -2.1363657E-03
  1.3295000E-02   -1.8343456E-03
  1.3330000E-02   -1.5217273E-03
  1.3365000E-02   -1.1993294E-03
  1.3400000E-02   -8.6802687E-04
  1.3435000E-02   -5.2875472E-04
  1.3470000E-02   -1.8251267E-04
  1.3505000E-02    1.6963972E-04
  1.3540000E-02    5.2659208E-04
  1.3575000E-02    8.8719191E-04
  1.3610000E-02    1.2502425E-03
  1.3645000E-02    1.6144990E-03
  1.3680000E-02    1.9786893E-03
  1.3715000E-02    2.3415224E-03
  1.3750000E-02    2.7016727E-03
  1.3785000E-02    3.0577993E-03
  1.3820000E-02    3.4085661E-03
  1.3855000E-02    3.7526325E-03
  1.3890000E-02    4.0886491E-03
  1.3925000E-02    4.4152839E-03
  1.3960000E-02    4.7312314E-03
  1.3995000E-02    5.0352160E-03
  1.4030000E-02    5.3259977E-03
  1.4065000E-02    5.6023723E-03
  1.4100000E-02    5.8631776E-03
  1.4135000E-02    6.1073173E-03
  1.4170000E-02    6.3337591E-03
  1.4205000E-02    6.5415385E-03
  1.4240000E-02    6.7297732E-03
  1.4275000E-02    6.8976642E-03
  1.4310000E-02    7.0444904E-03
  1.4345000E-02    7.1696253E-03
  1.4380000E-02    7.2725476E-03
  1.4415000E-02    7.3528383E-03
  1.4450000E-02    7.4101873E-03
  1.4485000E-02    7.4443882E-03
  1.4520000E-02    7.4553443E-03
  1.4555000E-02    7.4430839E-03
  1.4590000E-02    7.4077430E-03
  1.4625000E-02    7.3495656E-03
  1.4660000E-02    7.2689173E-03
  1.4695000E-02    7.1662855E-03
  1.4730000E-02    7.0422646E-03
  1.4765000E-02    6.8975571E-03
  1.4800000E-02    6.7329677E-03
  1.4835000E-02    6.5494068E-03
  1.4870000E-02    6.3478909E-03
  1.4905000E-02    6.1295228E-03
  1.4940000E-02    5.8954819E-03
  1.4975000E-02    5.6470418E-03
  1.5010000E-02    5.3855497E-03
  1.5045000E-02    5.1124003E-03
  1.5080000E-02    4.8290528E-03
  1.5115000E-02    4.5370311E-03
  1.5150000E-02    4.2378786E-03
  1.5185000E-02    3.9331638E-03
  1.5220000E-02    3.6244902E-03
  1.5255000E-02    3.3134660E-03
  1.5290000E-02    3.0016873E-03
  1.5325000E-02    2.6907499E-03
  1.5360000E-02    2.3822319E-03
  1.5395000E-02    2.0776717E-03
  1.5430000E-02    1.7785722E-03
  1.5465000E-02    1.4863876E-03
  1.5500000E-02    1.2025050E-03
  1.5535000E-02    9.2824717E-04
  1.5570000E-02    6.6486240E-04
  1.5605000E-02    4.1351040E-04
  1.5640000E-02    1.7526513E-04
  1.5675001E-02   -4.8895767E-05
  1.5710000E-02   -2.5811195E-04
  1.5745001E-02   -4.5163560E-04
  1.5780000E-02   -6.2881783E-04
  1.5814999E-02   -7.8912359E-04
  1.5850000E-02   -9.3214883E-04
  1.5884999E-02   -1.0576136E-03
  1.5920000E-02   -1.1653573E-03
  1.5954999E-02   -1.2553460E-03
  1.5990000E-02   -1.3276682E-03
  1.6024999E-02   -1.3825255E-03
  1.6060000E-02   -1.4202362E-03
  1.6094999E-02   -1.4412398E-03
  1.6130000E-02   -1.4460863E-03
  1.6164999E-02   -1.4354249E-03
  1.6200000E-02   -1.4100020E-03
  1.6235000E-02   -1.3706562E-03
  1.6270000E-02   -1.3183143E-03
  1.6305000E-02   -1.2539772E-03
  1.6340001E-02   -1.1787048E-03
  1.6375000E-02   -1.0936143E-03
  1.6410001E-02   -9.9987839E-04
  1.6445000E-02   -8.9871272E-04
  1.6480001E-02   -7.9135620E-04
  1.6515000E-02   -6.7905389E-04
  1.6550001E-02   -5.6305766E-04
  1.6585000E-02   -4.4463115E-04
  1.6620001E-02   -3.2502681E-04
  1.6655000E-02   -2.0545824E-04
  1.6690001E-02   -8.7104396E-05
  1.6725000E-02    2.8885861E-05
  1.6759999E-02    1.4141446E-04
  1.6795000E-02    2.4945114E-04
  1.6829999E-02    3.5203891E-04
  1.6865000E-02    4.4829588E-04
  1.6899999E-02    5.3741160E-04
  1.6935000E-02    6.1865587E-04
  1.6969999E-02    6.9140195E-04
  1.7005000E-02    7.5512787E-04
  1.7039999E-02    8.0940477E-04
  1.7075000E-02    8.5389969E-04
  1.7109999E-02    8.8838197E-04
  1.7145000E-02    9.1272953E-04
  1.7180000E-02    9.2692958E-04
  1.7215000E-02    9.3105814E-04
  1.7250000E-02    9.2527969E-04
  1.7285001E-02    9.0987381E-04
  1.7320000E-02    8.8522153E-04
  1.7355001E-02    8.5176807E-04
  1.7390000E-02    8.1002986E-04
  1.7425001E-02    7.6061214E-04
  1.7460000E-02    7.0419151E-04
  1.7495001E-02    6.4149854E-04
  1.7530000E-02    5.7331304E-04
  1.7565001E-02    5.0045532E-04
  1.7600000E-02    4.2377805E-04
  1.7635001E-02    3.4416295E-04
  1.7670000E-02    2.6251026E-04
  1.7704999E-02    1.7972072E-04
  1.7740000E-02    9.6683427E-05
  1.7774999E-02    1.4280105E-05
  1.7810000E-02   -6.6616223E-05
  1.7844999E-02   -1.4516551E-04
  1.7880000E-02   -2.2057757E-04
  1.7914999E-02   -2.9210903E-04
  1.7950000E-02   -3.5906470E-04
  1.7984999E-02   -4.2080216E-04
  1.8020000E-02   -4.7673986E-04
  1.8054999E-02   -5.2637671E-04
  1.8090000E-02   -5.6929578E-04
  1.8124999E-02   -6.0514780E-04
  1.8160000E-02   -6.3365482E-04
  1.8195000E-02   -6.5462838E-04
  1.8230001E-02   -6.6797045E-04
  1.8265000E-02   -6.7366957E-04
  1.8300001E-02   -6.7179376E-04
  1.8335000E-02   -6.6247763E-04
  1.8370001E-02   -6.4593245E-04
  1.8405000E-02   -6.2246656E-04
  1.8440001E-02   -5.9246569E-04
  1.8475000E-02   -5.5636169E-04
  1.8510001E-02   -5.1463832E-04
  1.8545000E-02   -4.6784704E-04
  1.8580001E-02   -4.1659712E-04
  1.8615000E-02   -3.6153538E-04
  1.8650001E-02   -3.0333365E-04
  1.8685000E-02   -2.4268517E-04
  1.8719999E-02   -1.8030636E-04
  1.8755000E-02   -1.1692981E-04
  1.8789999E-02   -5.3287829E-05
  1.8825000E-02    9.8988539E-06
  1.8859999E-02    7.1923991E-05
  1.8895000E-02    1.3209903E-04
  1.8929999E-02    1.8976060E-04
  1.8965000E-02    2.4428556E-04
  1.8999999E-02    2.9510399E-04
  1.9035000E-02    3.4169457E-04
  1.9069999E-02    3.8357891E-04
  1.9105000E-02    4.2033527E-04
  1.9140000E-02    4.5161159E-04
  1.9175000E-02    4.7712526E-04
  1.9210000E-02    4.9666362E-04
  1.9245001E-02    5.1008124E-04
  1.9280000E-02    5.1729783E-04
  1.9315001E-02    5.1831198E-04
  1.9350000E-02    5.1320222E-04
  1.9385001E-02    5.0211011E-04
  1.9420000E-02    4.8523815E-04
  1.9455001E-02    4.6285623E-04
  1.9490000E-02    4.3529502E-04
  1.9525001E-02    4.0294332E-04
  1.9560000E-02    3.6624703E-04
  1.9595001E-02    3.2569203E-04
  1.9630000E-02    2.8179647E-04
  1.9664999E-02    2.3511687E-04
  1.9700000E-02    1.8624216E-04
  1.9734999E-02    1.3578063E-04
  1.9770000E-02    8.4348605E-05
  1.9804999E-02    3.2562144E-05
  1.9840000E-02   -1.8959548E-05
  1.9874999E-02   -6.9601701E-05
  1.9910000E-02   -1.1877747E-04
  1.9944999E-02   -1.6592642E-04
  1.9980000E-02   -2.1050184E-04
  2.0014999E-02   -2.5199130E-04
  2.0050000E-02   -2.8993812E-04
  2.0085000E-02   -3.2393410E-04
  2.0120000E-02   -3.5361879E-04
  2.0155000E-02   -3.7868568E-04
  2.0190001E-02   -3.9887839E-04
  2.0225000E-02   -4.1400062E-04
  2.0260001E-02   -4.2393451E-04
  2.0295000E-02   -4.2863091E-04
  2.0330001E-02   -4.2808778E-04
  2.0365000E-02   -4.2235648E-04
  2.0400001E-02   -4.1156000E-04
  2.0435000E-02   -3.9589213E-04
  2.0470001E-02   -3.7560254E-04
  2.0505000E-02   -3.5098771E-04
  2.0540001E-02   -3.2238942E-04
  2.0575000E-02   -2.9019653E-04
  2.0609999E-02   -2.5484510E-04
  2.0645000E-02   -2.1680718E-04
  2.0679999E-02   -1.7657604E-04
  2.0715000E-02   -1.3466470E-04
  2.0749999E-02   -9.1607093E-05
  2.0785000E-02   -4.7945003E-05
  2.0819999E-02   -4.2185920E-06
  2.0855000E-02    3.9028506E-05
  2.0889999E-02    8.1256418E-05
  2.0925000E-02    1.2195284E-04
  2.0959999E-02    1.6063756E-04
  2.0995000E-02    1.9685063E-04
  2.1029999E-02    2.3016085E-04
  2.1065000E-02    2.6018388E-04
  2.1100000E-02    2.8658108E-04
  2.1135001E-02    3.0905736E-04
  2.1170000E-02    3.2736987E-04
  2.1205001E-02    3.4132972E-04
  2.1240000E-02    3.5080040E-04
  2.1275001E-02    3.5570576E-04
  2.1310000E-02    3.5603336E-04
  2.1345001E-02    3.5182605E-04
  2.1380000E-02    3.4317619E-04
  2.1415001E-02    3.3022731E-04
  2.1450000E-02    3.1318230E-04
  2.1485001E-02    2.9230228E-04
  2.1520000E-02    2.6788990E-04
  2.1555001E-02    2.4028095E-04
  2.1590000E-02    2.0985283E-04
  2.1624999E-02    1.7702099E-04
  2.1660000E-02    1.4222364E-04
  2.1694999E-02    1.0591502E-04
  2.1730000E-02    6.8569403E-05
  2.1764999E-02    3.0681098E-05
  2.1800000E-02   -7.2551566E-06
  2.1834999E-02   -4.4763681E-05
  2.1870000E-02   -8.1378457E-05
  2.1904999E-02   -1.1663457E-04
  2.1940000E-02   -1.5008640E-04
  2.1974999E-02   -1.8131909E-04
  2.2010000E-02   -2.0994968E-04
  2.2045000E-02   -2.3563697E-04
  2.2080000E-02   -2.5807871E-04
  2.2115000E-02   -2.7700776E-04
  2.2150001E-02   -2.9220901E-04
  2.2185000E-02   -3.0352091E-04
  2.2220001E-02   -3.1082597E-04
  2.2255000E-02   -3.1406331E-04
  2.2290001E-02   -3.1322872E-04
  2.2325000E-02   -3.0835959E-04
  2.2360001E-02   -2.9954987E-04
  2.2395000E-02   -2.8695632E-04
  2.2430001E-02   -2.7077252E-04
  2.2465000E-02   -2.5122735E-04
  2.2500001E-02   -2.2860285E-04
  2.2535000E-02   -2.0322380E-04
  2.2569999E-02   -1.7544314E-04
  2.2605000E-02   -1.4564265E-04
  2.2639999E-02   -1.1422676E-04
  2.2675000E-02   -8.1614409E-05
  2.2709999E-02   -4.8239999E-05
  2.2745000E-02   -1.4551947E-05
  2.2779999E-02    1.8999861E-05
  2.2815000E-02    5.1978372E-05
  2.2849999E-02    8.3961320E-05
  2.2885000E-02    1.1453685E-04
  2.2919999E-02    1.4330851E-04
  2.2955000E-02    1.6990538E-04
  2.2990000E-02    1.9399248E-04
  2.3025000E-02    2.1527903E-04
  2.3060000E-02    2.3350993E-04
  2.3095001E-02    2.4846007E-04
  2.3130000E-02    2.5995137E-04
  2.3165001E-02    2.6785748E-04
  2.3200000E-02    2.7209611E-04
  2.3235001E-02    2.7264358E-04
  2.3270000E-02    2.6953541E-04
  2.3305001E-02    2.6283518E-04
  2.3340000E-02    2.5263889E-04
  2.3375001E-02    2.3910710E-04
  2.3410000E-02    2.2245762E-04
  2.3445001E-02    2.0293990E-04
  2.3480000E-02    1.8083400E-04
  2.3514999E-02    1.5645004E-04
  2.3550000E-02    1.3012296E-04
  2.3584999E-02    1.0221758E-04
  2.3620000E-02    7.3126277E-05
  2.3654999E-02    4.3252861E-05
  2.3690000E-02    1.3003344E-05
  2.3724999E-02   -1.7218585E-05
  2.3760000E-02   -4.7015248E-05
  2.3794999E-02   -7.5987744E-05
  2.3830000E-02   -1.0374007E-04
  2.3864999E-02   -1.2990661E-04
  2.3900000E-02   -1.5415729E-04
  2.3934999E-02   -1.7617775E-04
  2.3970000E-02   -1.9567959E-04
  2.4005000E-02   -2.1242155E-04
  2.4040001E-02   -2.2619772E-04
  2.4075000E-02   -2.3683415E-04
  2.4110001E-02   -2.4420823E-04
  2.4145000E-02   -2.4824648E-04
  2.4180001E-02   -2.4891569E-04
  2.4215000E-02   -2.4623150E-04
  2.4250001E-02   -2.4025368E-04
  2.4285000E-02   -2.3107849E-04
  2.4320001E-02   -2.1884959E-04
  2.4355000E-02   -2.0375842E-04
  2.4390001E-02   -1.8603158E-04
  2.4425000E-02   -1.6592810E-04
  2.4460001E-02   -1.4373558E-04
  2.4495000E-02   -1.1976456E-04
  2.4529999E-02   -9.4353047E-05
  2.4565000E-02   -6.7864181E-05
  2.4599999E-02   -4.0669827E-05
  2.4635000E-02   -1.3141846E-05
  2.4669999E-02    1.4342379E-05
  2.4705000E-02    4.1399675E-05
  2.4739999E-02    6.7658395E-05
  2.4775000E-02    9.2767885E-05
  2.4809999E-02    1.1638827E-04
  2.4845000E-02    1.3819669E-04
  2.4879999E-02    1.5790580E-04
  2.4915000E-02    1.7525807E-04
  2.4950000E-02    1.9002332E-04
  2.4985000E-02    2.0201453E-04
  2.5020000E-02    2.1108350E-04
  2.5055001E-02    2.1711530E-04
  2.5090000E-02    2.2004382E-04
  2.5125001E-02    2.1984987E-04
  2.5160000E-02    2.1655222E-04
  2.5195001E-02    2.1021499E-04
  2.5230000E-02    2.0094409E-04
  2.5265001E-02    1.8888162E-04
  2.5300000E-02    1.7421404E-04
  2.5335001E-02    1.5716266E-04
  2.5370000E-02    1.3797433E-04
  2.5405001E-02    1.1693147E-04
  2.5440000E-02    9.4342031E-05
  2.5474999E-02    7.0525086E-05
  2.5510000E-02    4.5822566E-05
  2.5544999E-02    2.0592781E-05
  2.5580000E-02   -4.8100051E-06
  2.5614999E-02   -3.0029507E-05
  2.5650000E-02   -5.4709319E-05
  2.5684999E-02   -7.8509118E-05
  2.5720000E-02   -1.0109951E-04
  2.5754999E-02   -1.2216382E-04
  2.5790000E-02   -1.4141633E-04
  2.5824999E-02   -1.5859820E-04
  2.5860000E-02   -1.7347380E-04
  2.5895000E-02   -1.8584935E-04
  2.5930000E-02   -1.9557336E-04
  2.5965000E-02   -2.0252018E-04
  2.6000001E-02   -2.0659725E-04
  2.6035000E-02   -2.0776333E-04
  2.6070001E-02   -2.0602731E-04
  2.6105000E-02   -2.0143657E-04
  2.6140001E-02   -1.9407285E-04
  2.6175000E-02   -1.8405278E-04
  2.6210001E-02   -1.7152887E-04
  2.6245000E-02   -1.5669323E-04
  2.6280001E-02   -1.3977669E-04
  2.6315000E-02   -1.2103643E-04
  2.6350001E-02   -1.0074943E-04
  2.6385000E-02   -7.9212499E-05
  2.6419999E-02   -5.6735858E-05
  2.6455000E-02   -3.3642820E-05
  2.6489999E-02   -1.0272261E-05
  2.6525000E-02    1.3037875E-05
  2.6559999E-02    3.5960926E-05
  2.6595000E-02    5.8171030E-05
  2.6629999E-02    7.9351601E-05
  2.6665000E-02    9.9212506E-05
  2.6699999E-02    1.1747950E-04
  2.6735000E-02    1.3389041E-04
  2.6769999E-02    1.4821760E-04
  2.6805000E-02    1.6027433E-04
  2.6839999E-02    1.6990528E-04
  2.6875000E-02    1.7698709E-04
  2.6910000E-02    1.8142897E-04
  2.6945001E-02    1.8317478E-04
  2.6980000E-02    1.8221345E-04