 -4.8000002E-03    1.0000000E-24
 -4.7650002E-03    1.0000002E-24
 -4.7300002E-03    1.0000001E-24
 -4.6950001E-03    1.0000002E-24
 -4.6600001E-03    1.0000002E-24
 -4.6250001E-03    1.0000000E-24
 -4.5900000E-03    1.0000000E-24
 -4.5550000E-03    1.0000001E-24
 -4.5200000E-03    1.0000001E-24
 -4.4849999E-03    9.9999972E-25
 -4.4499999E-03    1.0000000E-24
 -4.4149999E-03    1.0000005E-24
 -4.3799998E-03    1.0000005E-24
 -4.3449998E-03    9.9999982E-25
 -4.3100002E-03    9.9999982E-25
 -4.2750002E-03    1.0000006E-24
 -4.2400002E-03    1.0000005E-24
 -4.2050001E-03    9.9999972E-25
 -4.1700001E-03    9.9999963E-25
 -4.1350001E-03    1.0000002E-24
 -4.1000000E-03    1.0000005E-24
 -4.0650000E-03    1.0000001E-24
 -4.0300000E-03    9.9999972E-25
 -3.9949999E-03    9.9999972E-25
 -3.9599999E-03    1.0000000E-24
 -3.9249999E-03    1.0000004E-24
 -3.8900001E-03    1.0000001E-24
 -3.8550000E-03    9.9999982E-25
 -3.8200000E-03    1.0000002E-24
 -3.7849999E-03    1.0000004E-24
 -3.7499999E-03    1.0000000E-24
 -3.7150001E-03    9.9999943E-25
 -3.6800001E-03    1.0000000E-24
 -3.6450000E-03    1.0000005E-24
 -3.6100000E-03    1.0000001E-24
 -3.5750000E-03    9.9999972E-25
 -3.5399999E-03    1.0000001E-24
 -3.5049999E-03    1.0000005E-24
 -3.4700001E-03    1.0000004E-24
 -3.4350001E-03    9.9999972E-25
 -3.4000000E-03    9.9999972E-25
 -3.3650000E-03    1.0000000E-24
 -3.3300000E-03    9.9999972E-25
 -3.2949999E-03    1.0000001E-24
 -3.2599999E-03    1.0000006E-24
 -3.2250001E-03    1.0000001E-24
 -3.1900001E-03    9.9999972E-25
 -3.1550000E-03    1.0000003E-24
 -3.1200000E-03    1.0000003E-24
 -3.0850000E-03    9.9999953E-25
 -3.0499999E-03    9.9999982E-25
 -3.0149999E-03    1.0000012E-24
 -2.9800001E-03    1.0000007E-24
 -2.9450001E-03    9.9999913E-25
 -2.9100000E-03    9.9999953E-25
 -2.8750000E-03    1.0000003E-24
 -2.8400000E-03    9.9999972E-25
 -2.8049999E-03    9.9999943E-25
 -2.7699999E-03    1.0000008E-24
 -2.7350001E-03    1.0000007E-24
 -2.7000001E-03    9.9999953E-25
 -2.6650000E-03    1.0000002E-24
 -2.6300000E-03    1.0000009E-24
 -2.5950000E-03    9.9999943E-25
 -2.5599999E-03    9.9999933E-25
 -2.5249999E-03    1.0000010E-24
 -2.4900001E-03    1.0000003E-24
 -2.4550001E-03    9.9999903E-25
 -2.4200000E-03    1.0000006E-24
 -2.3850000E-03    1.0000013E-24
 -2.3500000E-03    9.9999923E-25
 -2.3149999E-03    9.9999864E-25
 -2.2799999E-03    1.0000006E-24
 -2.2450001E-03    1.0000008E-24
 -2.2100001E-03    9.9999953E-25
 -2.1750000E-03    9.9999982E-25
 -2.1400000E-03    1.0000012E-24
 -2.1050000E-03    1.0000005E-24
 -2.0699999E-03    9.9999923E-25
 -2.0349999E-03    9.9999972E-25
 -2.0000001E-03    1.0000005E-24
 -1.9650001E-03    1.0000001E-24
 -1.9300000E-03    9.9999972E-25
 -1.8950000E-03    1.0000004E-24
 -1.8600000E-03    1.0000004E-24
 -1.8250000E-03    9.9999913E-25
 -1.7900000E-03    9.9999893E-25
 -1.7550000E-03    1.0000005E-24
 -1.7199999E-03    1.0000012E-24
 -1.6850000E-03    1.0000010E-24
 -1.6500000E-03    1.0000007E-24
 -1.6150000E-03    9.9999923E-25
 -1.5800000E-03    9.9999844E-25
 -1.5450000E-03    9.9999982E-25
 -1.5100000E-03    1.0000007E-24
 -1.4750001E-03    9.9999992E-25
 -1.4400000E-03    1.0000000E-24
 -1.4050000E-03    1.0000007E-24
 -1.3700000E-03    1.0000006E-24
 -1.3350000E-03    9.9999992E-25
 -1.3000000E-03    9.9999913E-25
 -1.2650000E-03    9.9999943E-25
 -1.2300001E-03    1.0000011E-24
 -1.1950000E-03    1.0000009E-24
 -1.1600000E-03    9.9999775E-25
 -1.1250000E-03    9.9999963E-25
 -1.0900000E-03    1.0000037E-24
 -1.0550000E-03    9.9999943E-25
 -1.0200000E-03    9.9999903E-25
 -9.8500005E-04    1.0000046E-24
 -9.5000002E-04    1.0000009E-24
 -9.1499998E-04    9.9999933E-25
 -8.8000001E-04    9.9999213E-25
 -8.4499997E-04    1.0000125E-24
 -8.1000000E-04    9.9997931E-25
 -7.7500002E-04    1.0000833E-24
 -7.3999999E-04    9.9999193E-25
 -7.0500001E-04    9.9990713E-25
 -6.6999998E-04    9.9995387E-25
 -6.3500000E-04    1.0000616E-24
 -6.0000003E-04    1.0000613E-24
 -5.6499999E-04    9.9995643E-25
 -5.3000002E-04    9.9972421E-25
 -4.9499999E-04    9.9946803E-25
 -4.6000001E-04    9.9957887E-25
 -4.2500001E-04    9.9797994E-25
 -3.9000000E-04    1.0002119E-24
 -3.5500000E-04    9.9857632E-25
 -3.1999999E-04    1.0028597E-24
 -2.8499999E-04    1.0148666E-24
 -2.5000001E-04    9.9713616E-25
 -2.1499999E-04    9.8203647E-25
 -1.8000000E-04    1.0149929E-24
 -1.4500000E-04    1.0126429E-24
 -1.1000000E-04    1.0028494E-24
 -7.5000004E-05    1.0154230E-24
 -3.9999999E-05    1.0132853E-24
 -4.9999999E-06    1.0174997E-24
  2.9999999E-05    9.4615829E-25
  6.5000000E-05    1.0166382E-24
  9.9999997E-05    8.7930667E-25
  1.3499999E-04    1.2119117E-24
  1.7000000E-04    1.1358969E-24
  2.0500000E-04    1.2729440E-24
  2.3999999E-04    9.6600840E-25
  2.7500000E-04    1.3232041E-24
  3.1000000E-04    1.5215240E-24
  3.4500001E-04    4.1063836E-25
  3.8000001E-04    2.6370025E-25
  4.1499999E-04    8.5830344E-25
  4.4999999E-04    7.9964804E-25
  4.8500000E-04    7.4502247E-25
  5.2000000E-04   -1.1367507E-24
  5.5499998E-04   -1.9573045E-24
  5.9000001E-04    2.3926911E-24
  6.2499999E-04   -2.9366063E-24
  6.6000002E-04   -5.5191697E-25
  6.9500000E-04    1.8692209E-23
  7.3000003E-04    1.5021144E-23
  7.6500000E-04   -2.4811564E-23
  7.9999998E-04   -1.1231351E-23
  8.3500001E-04    3.1578033E-23
  8.6999999E-04    2.5371392E-24
  9.0500002E-04   -6.0064683E-23
  9.4000000E-04    8.7454335E-24
  9.7499997E-04    3.8118175E-23
  1.0100000E-03   -5.5966955E-23
  1.0450000E-03    8.2554254E-24
  1.0800000E-03    7.3777364E-23
  1.1150000E-03   -2.1828579E-22
  1.1500000E-03   -1.8086080E-22
  1.1849999E-03    3.6818882E-22
  1.2200000E-03    6.5722881E-24
  1.2550000E-03   -2.7300025E-22
  1.2900000E-03    7.0399443E-23
  1.3250000E-03    2.9201523E-22
  1.3600000E-03    4.2273283E-23
  1.3950000E-03   -9.7792234E-23
  1.4299999E-03    7.4148093E-22
  1.4650000E-03   -3.1275301E-22
  1.5000000E-03   -1.8135705E-21
  1.5350000E-03    9.8897954E-22
  1.5700000E-03    2.2649799E-21
  1.6050000E-03   -1.4746040E-21
  1.6400000E-03    5.5077481E-22
  1.6749999E-03    2.5919577E-21
  1.7100000E-03    9.1002530E-22
  1.7450000E-03   -1.9869666E-21
  1.7800000E-03   -3.0148478E-21
  1.8150000E-03   -3.1068851E-21
  1.8500000E-03   -5.1851800E-22
  1.8850000E-03   -4.5530512E-22
  1.9200000E-03    1.7642556E-22
  1.9550000E-03    4.6504777E-21
  1.9900000E-03    3.0195656E-20
  2.0250001E-03   -1.7845520E-20
  2.0600001E-03   -3.0107872E-20
  2.0949999E-03    2.8082090E-20
  2.1299999E-03    1.5780273E-20
  2.1650000E-03   -4.5024268E-20
  2.2000000E-03   -3.9998771E-20
  2.2350000E-03    6.1283324E-20
  2.2700001E-03    6.3687160E-21
  2.3050001E-03   -9.5653454E-20
  2.3399999E-03   -8.1966296E-20
  2.3749999E-03    3.4869980E-20
  2.4100000E-03    1.3399385E-19
  2.4450000E-03   -4.6775904E-21
  2.4800000E-03   -1.5537255E-19
  2.5150001E-03    2.4633888E-19
  2.5500001E-03    2.5693783E-19
  2.5849999E-03   -2.9158375E-19
  2.6199999E-03    1.2960855E-19
  2.6550000E-03    1.6627740E-19
  2.6900000E-03   -3.4780869E-19
  2.7250000E-03   -3.3282266E-19
  2.7600001E-03    3.9990264E-19
  2.7950001E-03    4.2263966E-20
  2.8299999E-03    6.5620282E-22
  2.8649999E-03    2.8653937E-19
  2.9000000E-03    7.0246517E-20
  2.9350000E-03   -5.5368461E-19
  2.9700000E-03    2.0667440E-20
  3.0050001E-03    5.6853618E-21
  3.0400001E-03   -5.9260465E-19
  3.0749999E-03    8.1826500E-19
  3.1099999E-03    2.3750357E-18
  3.1450000E-03    5.7229385E-19
  3.1800000E-03   -2.3218588E-18
  3.2150000E-03   -5.2617094E-20
  3.2500001E-03    1.2795844E-18
  3.2850001E-03    3.7963129E-19
  3.3199999E-03    1.3300005E-20
  3.3549999E-03   -2.0558036E-18
  3.3900000E-03    2.9634908E-18
  3.4250000E-03    9.0031711E-18
  3.4600000E-03    4.9487809E-18
  3.4950001E-03   -4.0615809E-18
  3.5300001E-03   -6.6715218E-18
  3.5649999E-03    6.5356264E-18
  3.5999999E-03    1.4255771E-17
  3.6350000E-03   -6.1932667E-18
  3.6700000E-03   -2.6424536E-17
  3.7050000E-03    7.3584110E-18
  3.7400001E-03    3.2866629E-17
  3.7750001E-03   -1.6760866E-18
  3.8099999E-03   -4.7342283E-17
  3.8449999E-03   -1.4089685E-17
  3.8800000E-03    3.9968937E-17
  3.9149998E-03    2.3797237E-17
  3.9499998E-03   -4.8007941E-17
  3.9849998E-03   -4.5712327E-17
  4.0199999E-03    3.5290354E-17
  4.0549999E-03    8.7338924E-17
  4.0899999E-03    2.6278913E-17
  4.1250000E-03   -1.0130164E-16
  4.1600000E-03   -6.4130241E-17
  4.1950000E-03    1.2818207E-16
  4.2300001E-03    1.3427868E-16
  4.2650001E-03   -1.5558248E-16
  4.3000001E-03   -2.3343026E-16
  4.3350002E-03    1.3242743E-16
  4.3700002E-03    3.3409573E-16
  4.4049998E-03   -4.7511858E-17
  4.4399998E-03   -4.0285639E-16
  4.4749998E-03   -9.2241226E-17
  4.5099999E-03    4.6890976E-16
  4.5449999E-03    3.1872272E-16
  4.5799999E-03   -4.3558966E-16
  4.6150000E-03   -5.9170953E-16
  4.6500000E-03    3.0203588E-16
  4.6850001E-03    8.3287479E-16
  4.7200001E-03   -4.9427969E-17
  4.7550001E-03   -1.0512780E-15
  4.7900002E-03   -2.9572506E-16
  4.8250002E-03    1.2072298E-15
  4.8600002E-03    8.5019084E-16
  4.8949998E-03   -1.2652634E-15
  4.9299998E-03   -1.5602955E-15
  4.9649999E-03    1.1576771E-15
  4.9999999E-03    2.4881097E-15
  5.0349999E-03   -5.8607343E-16
  5.0700000E-03   -3.3532984E-15
  5.1050000E-03   -2.9715872E-16
  5.1400000E-03    4.1167135E-15
  5.1750001E-03    1.6344734E-15
  5.2100001E-03   -4.6594495E-15
  5.2450001E-03   -3.3553262E-15
  5.2800002E-03    4.7542786E-15
  5.3150002E-03    5.4922014E-15
  5.3500002E-03   -3.9413256E-15
  5.3849998E-03   -7.5576608E-15
  5.4199998E-03    2.1645887E-15
  5.4549999E-03    9.3935640E-15
  5.4899999E-03    8.7238512E-16
  5.5249999E-03   -1.0258386E-14
  5.5600000E-03   -4.8505380E-15
  5.5950000E-03    9.8533124E-15
  5.6300000E-03    9.7090737E-15
  5.6650001E-03   -7.3836794E-15
  5.7000001E-03   -1.4864901E-14
  5.7350001E-03    2.2286479E-15
  5.7700002E-03    1.9298270E-14
  5.8050002E-03    5.6823104E-15
  5.8400002E-03   -2.2020449E-14
  5.8749998E-03   -1.6128934E-14
  5.9099998E-03    2.2190105E-14
  5.9449999E-03    2.8859432E-14
  5.9799999E-03   -1.8393847E-14
  6.0149999E-03   -4.2490385E-14
  6.0500000E-03    1.0205807E-14
  6.0850000E-03    5.5875223E-14
  6.1200000E-03    3.0819514E-15
  6.1550001E-03   -6.6954072E-14
  6.1900001E-03   -2.1067641E-14
  6.2250001E-03    7.4102176E-14
  6.2600002E-03    4.3276038E-14
  6.2950002E-03   -7.5089450E-14
  6.3299998E-03   -6.8419730E-14
  6.3649998E-03    6.8036112E-14
  6.3999998E-03    9.4895120E-14
  6.4349999E-03   -5.0446436E-14
  6.4699999E-03   -1.1956033E-13
  6.5049999E-03    2.0551261E-14
  6.5400000E-03    1.3875274E-13
  6.5750000E-03    2.3240444E-14
  6.6100000E-03   -1.4690557E-13
  6.6450001E-03   -8.1309911E-14
  6.6800001E-03    1.3677570E-13
  6.7150001E-03    1.5176661E-13
  6.7500002E-03   -9.9658847E-14
  6.7850002E-03   -2.2837049E-13
  6.8199998E-03    2.7548056E-14
  6.8549998E-03    2.9993605E-13
  6.8899998E-03    8.5248249E-14
  6.9249999E-03   -3.4970030E-13
  6.9599999E-03   -2.3839340E-13
  6.9949999E-03    3.5642886E-13
  7.0300000E-03    4.2232732E-13
  7.0650000E-03   -2.9725010E-13
  7.1000000E-03   -6.1451446E-13
  7.1350001E-03    1.5416867E-13
  7.1700001E-03    7.7912443E-13
  7.2050001E-03    7.8737052E-14
  7.2400002E-03   -8.6995959E-13
  7.2750002E-03   -3.8764228E-13
  7.3099998E-03    8.3897245E-13
  7.3449998E-03    7.3571368E-13
  7.3799998E-03   -6.4581359E-13
  7.4149999E-03   -1.0624760E-12
  7.4499999E-03    2.7046765E-13
  7.4850000E-03    1.2869204E-12
  7.5200000E-03    2.6985166E-13
  7.5550000E-03   -1.3257011E-12
  7.5900001E-03   -9.1453104E-13
  7.6250001E-03    1.1176706E-12
  7.6600001E-03    1.5674238E-12
  7.6950002E-03   -6.4411145E-13
  7.7300002E-03   -2.1143378E-12
  7.7650002E-03   -6.2627339E-14
  7.7999998E-03    2.4445352E-12
  7.8349998E-03    9.1688007E-13
  7.8699999E-03   -2.4794704E-12
  7.9049999E-03   -1.7913882E-12
  7.9399999E-03    2.1898043E-12
  7.9750000E-03    2.5419532E-12
  8.0100000E-03   -1.6052728E-12
  8.0450000E-03   -3.0271321E-12
  8.0800001E-03    8.2704839E-13
  8.1150001E-03    3.1544266E-12
  8.1500001E-03    2.2438057E-14
  8.1850002E-03   -2.8842562E-12
  8.2200002E-03   -8.1180424E-13
  8.2550002E-03    2.2304190E-12
  8.2900003E-03    1.4581624E-12
  8.3250003E-03   -1.2291676E-12
  8.3600003E-03   -1.8696156E-12
  8.3950004E-03   -6.9470024E-14
  8.4300004E-03    1.9363690E-12
  8.4650004E-03    1.5866241E-12
  8.5000005E-03   -1.5774674E-12
  8.5349996E-03   -3.2713834E-12
  8.5699996E-03    7.4887703E-13
  8.6049996E-03    4.9421561E-12
  8.6399997E-03    5.2249074E-13
  8.6749997E-03   -6.4577085E-12
  8.7099997E-03   -2.2580431E-12
  8.7449998E-03    7.5750803E-12
  8.7799998E-03    4.4316339E-12
  8.8149998E-03   -7.9753365E-12
  8.8499999E-03   -6.6423585E-12
  8.8849999E-03    7.8366298E-12
  8.9199999E-03    8.6547098E-12
  8.9550000E-03   -6.9792310E-12
  8.9900000E-03   -1.0171972E-11
  9.0250000E-03    5.1818723E-12
  9.0600001E-03    1.0849381E-11
  9.0950001E-03   -3.0109734E-12
  9.1300001E-03   -1.0253555E-11
  9.1650002E-03   -1.7071712E-13
  9.2000002E-03    7.3410496E-12
  9.2350002E-03    3.0876729E-12
  9.2700003E-03   -2.1449344E-12
  9.3050003E-03   -4.5856595E-12
  9.3400003E-03   -5.4256872E-12
  9.3750004E-03    3.2279871E-12
  9.4100004E-03    1.3857999E-11
  9.4450004E-03    2.4531594E-12
  9.4799995E-03   -2.1011996E-11
  9.5149996E-03   -9.8507296E-12
  9.5499996E-03    2.6032161E-11
  9.5849996E-03    2.1157492E-11
  9.6199997E-03   -2.5000087E-11
  9.6549997E-03   -3.3289690E-11
  9.6899997E-03    1.8408159E-11
  9.7249998E-03    4.3787352E-11
  9.7599998E-03   -2.2124240E-12
  9.7949998E-03   -4.1923645E-11
  9.8299999E-03   -1.0337753E-11
  9.8649999E-03    3.4526128E-11
  9.8999999E-03    2.3134172E-11
  9.9350000E-03   -1.5872555E-11
  9.9700000E-03   -3.2993590E-11
  1.0005000E-02   -1.0716763E-11
  1.0040000E-02    1.2670010E-11
  1.0075000E-02    1.5276232E-11
  1.0110000E-02    1.7055763E-12
  1.0145000E-02   -1.9081700E-11
  1.0180000E-02   -1.7106126E-11
  1.0215000E-02    3.2854500E-11
  1.0250000E-02    5.7114084E-11
  1.0285000E-02   -3.0577964E-11
  1.0320000E-02   -9.5691968E-11
  1.0355000E-02    3.6204626E-11
  1.0390000E-02    1.1661090E-10
  1.0425000E-02   -3.2401811E-12
  1.0460000E-02   -7.9841592E-11
  1.0495000E-02    2.0381212E-12
  1.0530000E-02    4.0160712E-11
  1.0565000E-02   -3.0063469E-11
  1.0600000E-02   -4.1535130E-11
  1.0635000E-02    3.5758101E-11
  1.0670000E-02   -1.2333441E-11
  1.0705000E-02   -1.1408784E-10
  1.0740000E-02   -5.4115049E-11
  1.0775000E-02    9.2510909E-11
  1.0810000E-02    7.8222623E-11
  1.0845000E-02   -3.1734688E-11
  1.0880000E-02   -6.8710634E-11
  1.0915000E-02    6.8106722E-11
  1.0950000E-02    3.8648515E-11
  1.0985000E-02   -1.3667478E-10
  1.1020000E-02   -5.0295830E-11
  1.1055000E-02    1.0927574E-10
  1.1090000E-02   -3.1626199E-12
  1.1125000E-02   -1.8023974E-10
  1.1160000E-02   -1.1390400E-10
  1.1195000E-02    7.4316220E-11
  1.1230000E-02    2.4762473E-10
  1.1265000E-02    1.4476986E-10
  1.1300000E-02   -9.2468692E-11
  1.1335000E-02   -1.2524972E-11
  1.1370000E-02    7.4710738E-11
  1.1405000E-02   -1.4940836E-10
  1.1440000E-02   -6.4428407E-11
  1.1475000E-02    5.5503893E-11
  1.1510000E-02   -4.0720768E-10
  1.1545000E-02   -2.9309180E-10
  1.1580000E-02    6.8244055E-10
  1.1615000E-02    3.2619360E-10
  1.1650000E-02   -6.1266453E-10
  1.1685000E-02   -3.5591453E-11
  1.1720000E-02    4.3941770E-10
  1.1755000E-02   -1.8380746E-10
  1.1790000E-02   -2.8647079E-10
  1.1825000E-02    1.9923946E-10
  1.1860000E-02    2.4836946E-10
  1.1895000E-02    9.2395154E-11
  1.1930000E-02   -1.7787452E-10
  1.1965000E-02   -5.9343830E-10
  1.2000000E-02   -3.6422854E-11
  1.2035000E-02    4.9097953E-10
  1.2070000E-02    4.1528246E-11
  1.2105000E-02   -7.2027850E-10
  1.2140000E-02   -5.3186916E-10
  1.2175000E-02    3.3101236E-10
  1.2210000E-02    3.2446390E-10
  1.2245000E-02   -8.2412674E-11
  1.2280000E-02    3.4653187E-11
  1.2315000E-02    2.1357524E-10
  1.2350000E-02   -3.6351383E-10
  1.2385000E-02   -7.5000783E-10
  1.2420000E-02    9.6291981E-11
  1.2455000E-02    1.1999456E-10
  1.2490000E-02   -3.9647580E-10
  1.2525000E-02    6.1954780E-10
  1.2560000E-02    1.3902219E-09
  1.2595000E-02   -1.4995109E-10
  1.2630000E-02   -8.7411928E-10
  1.2665000E-02    5.5559379E-10
  1.2700000E-02    4.3569146E-10
  1.2735000E-02   -1.5664658E-09
  1.2770000E-02   -1.1442376E-09
  1.2805000E-02    8.3097706E-10
  1.2840000E-02    1.0224075E-09
  1.2875000E-02    1.2872810E-10
  1.2910000E-02   -5.7910798E-10
  1.2945000E-02   -1.0824641E-09
  1.2980000E-02   -3.4262604E-10
  1.3015000E-02    5.0304694E-10
  1.3050000E-02    4.4435006E-10
  1.3085000E-02    3.8074724E-10
  1.3120000E-02    1.1408515E-11
  1.3155000E-02   -4.0215273E-10
  1.3190000E-02    6.1741368E-10
  1.3225000E-02    7.4920198E-10
  1.3260000E-02   -1.0430862E-09
  1.3295000E-02   -1.0399551E-09
  1.3330000E-02    7.1440287E-10
  1.3365000E-02    7.3638395E-10
  1.3400000E-02   -7.0494936E-11
  1.3435000E-02    1.6856773E-10
  1.3470000E-02   -2.1435308E-10
  1.3505000E-02   -9.6795683E-10
  1.3540000E-02   -7.6724632E-10
  1.3575000E-02    9.7326321E-11
  1.3610000E-02    7.1178602E-10
  1.3645000E-02    3.0578826E-10
  1.3680000E-02    4.3627046E-11
  1.3715000E-02    6.0870498E-10
  1.3750000E-02    3.2912487E-10
  1.3785000E-02   -7.4032019E-10
  1.3820000E-02   -1.0128915E-10
  1.3855000E-02    2.6345032E-10
  1.3890000E-02   -8.0001061E-10
  1.3925000E-02   -1.7725599E-10
  1.3960000E-02    1.2478260E-09
  1.3995000E-02    7.0062250E-10
  1.4030000E-02   -1.9153068E-10
  1.4065000E-02   -5.2296098E-11
  1.4100000E-02    3.1786056E-11
  1.4135000E-02   -2.1108330E-11
  1.4170000E-02   -2.8025254E-10
  1.4205000E-02   -8.8927382E-10
  1.4240000E-02   -2.7678018E-10
  1.4275000E-02    8.0286844E-10
  1.4310000E-02    1.7909692E-10
  1.4345000E-02    1.3437385E-10
  1.4380000E-02    1.0894078E-09
  1.4415000E-02    1.3962137E-10
  1.4450000E-02   -9.6583297E-10
  1.4485000E-02   -2.5529637E-10
  1.4520000E-02    4.3443402E-10
  1.4555000E-02    5.4677302E-10
  1.4590000E-02    7.4151707E-10
  1.4625000E-02   -3.1002832E-11
  1.4660000E-02   -3.6406975E-10
  1.4695000E-02    9.8107555E-10
  1.4730000E-02    1.1943808E-09
  1.4765000E-02   -8.6578522E-10
  1.4800000E-02   -1.7450438E-09
  1.4835000E-02    1.1549564E-10
  1.4870000E-02    1.4427096E-09
  1.4905000E-02    8.2273649E-10
  1.4940000E-02   -2.6854977E-10
  1.4975000E-02   -4.7768051E-10
  1.5010000E-02    1.7550951E-10
  1.5045000E-02   -3.3293673E-10
  1.5080000E-02   -1.5590040E-09
  1.5115000E-02   -9.9420361E-10
  1.5150000E-02   -6.0605555E-11
  1.5185000E-02    1.3987125E-11
  1.5220000E-02    9.9825870E-10
  1.5255000E-02    1.5549191E-09
  1.5290000E-02   -4.5249907E-10
  1.5325000E-02   -1.0930917E-09
  1.5360000E-02    1.3122482E-09
  1.5395000E-02    8.1701229E-10
  1.5430000E-02   -2.2797408E-09
  1.5465000E-02   -1.5158482E-09
  1.5500000E-02    5.7910843E-10
  1.5535000E-02   -5.9028066E-10
  1.5570000E-02   -1.0527692E-09
  1.5605000E-02    8.9447250E-10
  1.5640000E-02    6.2235733E-10
  1.5675001E-02   -1.2863903E-09
  1.5710000E-02   -1.8260916E-10
  1.5745001E-02    1.4617542E-09
  1.5780000E-02    9.4513530E-10
  1.5814999E-02    1.5681526E-09
  1.5850000E-02    1.8293163E-09
  1.5884999E-02   -1.1127163E-09
  1.5920000E-02   -2.0685202E-09
  1.5954999E-02    3.5645195E-10
  1.5990000E-02   -1.5864923E-10
  1.6024999E-02   -1.7989156E-09
  1.6060000E-02    3.1374051E-10
  1.6094999E-02    8.1954776E-10
  1.6130000E-02   -2.9494649E-09
  1.6164999E-02   -3.3684429E-09
  1.6200000E-02    5.3199151E-10
  1.6235000E-02    1.5270329E-09
  1.6270000E-02   -3.7025580E-10
  1.6305000E-02   -3.3466254E-11
  1.6340001E-02    1.5674376E-09
  1.6375000E-02    7.4590051E-10
  1.6410001E-02   -6.2567368E-10
  1.6445000E-02   -1.2986719E-10
  1.6480001E-02    1.0192933E-10
  1.6515000E-02   -4.4059242E-10
  1.6550001E-02    9.8752853E-13
  1.6585000E-02   -1.2997800E-10
  1.6620001E-02   -6.7808992E-10
  1.6655000E-02    4.9653653E-10
  1.6690001E-02    2.6333991E-10
  1.6725000E-02   -2.3472075E-09
  1.6759999E-02   -1.4513634E-09
  1.6795000E-02    1.9109903E-09
  1.6829999E-02    1.4601358E-09
  1.6865000E-02   -4.1901346E-10
  1.6899999E-02    3.4619277E-10
  1.6935000E-02    1.1543876E-09
  1.6969999E-02    7.3121637E-10
  1.7005000E-02   -6.8382466E-11
  1.7039999E-02   -1.4037410E-09
  1.7075000E-02   -1.0923009E-09
  1.7109999E-02    9.4531150E-10
  1.7145000E-02    6.7863964E-10
  1.7180000E-02   -7.6142503E-10
  1.7215000E-02    1.5308903E-10
  1.7250000E-02    9.9556863E-10
  1.7285001E-02    7.9926461E-11
  1.7320000E-02    2.6888680E-10
  1.7355001E-02    9.3194041E-10
  1.7390000E-02   -3.1521075E-10
  1.7425001E-02   -1.2536265E-09
  1.7460000E-02    5.9387012E-10
  1.7495001E-02    2.9653837E-09
  1.7530000E-02    2.5329412E-09
  1.7565001E-02    9.8230424E-11
  1.7600000E-02   -6.9971429E-10
  1.7635001E-02    1.1991921E-10
  1.7670000E-02   -6.1676941E-10
  1.7704999E-02   -1.6701076E-09
  1.7740000E-02   -2.7712414E-11
  1.7774999E-02    1.2627690E-09
  1.7810000E-02   -3.4055034E-10
  1.7844999E-02   -6.0854616E-10
  1.7880000E-02    1.3688816E-09
  1.7914999E-02    8.9777041E-10
  1.7950000E-02   -1.1162207E-09
  1.7984999E-02   -3.3035397E-10
  1.8020000E-02    1.5449581E-09
  1.8054999E-02    1.6734463E-09
  1.8090000E-02    1.0611461E-09
  1.8124999E-02    3.0088174E-10
  1.8160000E-02   -3.4259603E-10
  1.8195000E-02    2.7706248E-10
  1.8230001E-02    6.2041172E-10
  1.8265000E-02   -5.8548844E-10
  1.8300001E-02   -8.1450841E-10
  1.8335000E-02   -1.2635699E-10
  1.8370001E-02   -4.9546256E-10
  1.8405000E-02    6.7439571E-10
  1.8440001E-02    2.8142466E-09
  1.8475000E-02    2.4572180E-10
  1.8510001E-02   -2.7600491E-09
  1.8545000E-02    1.2679157E-09
  1.8580001E-02    4.1044577E-09
  1.8615000E-02   -8.7773450E-10
  1.8650001E-02   -2.5127556E-09
  1.8685000E-02    2.2018927E-09
  1.8719999E-02    9.1160046E-10
  1.8755000E-02   -4.3178590E-09
  1.8789999E-02   -2.1490727E-09
  1.8825000E-02    1.6644166E-09
  1.8859999E-02   -5.2342536E-10
  1.8895000E-02   -1.9803301E-09
  1.8929999E-02   -1.0925870E-10
  1.8965000E-02   -2.6258065E-10
  1.8999999E-02   -1.2215000E-09
  1.9035000E-02    3.5536653E-11
  1.9069999E-02    1.3489552E-09
  1.9105000E-02    1.5123574E-09
  1.9140000E-02    1.0766015E-09
  1.9175000E-02    3.9423437E-10
  1.9210000E-02    3.4979455E-10
  1.9245001E-02   -1.7277149E-10
  1.9280000E-02   -1.6656723E-09
  1.9315001E-02   -9.6730712E-10
  1.9350000E-02    8.8911306E-10
  1.9385001E-02   -5.5562421E-10
  1.9420000E-02   -2.3967854E-09
  1.9455001E-02   -2.8223884E-10
  1.9490000E-02    1.3760638E-09
  1.9525001E-02   -7.7845996E-10
  1.9560000E-02   -1.7308459E-09
  1.9595001E-02    5.7209920E-10
  1.9630000E-02    1.1880055E-09
  1.9664999E-02   -6.8375505E-10
  1.9700000E-02   -4.6079618E-10
  1.9734999E-02    1.4359134E-09
  1.9770000E-02    9.3376684E-10
  1.9804999E-02   -7.5160689E-10
  1.9840000E-02   -7.9217977E-10
  1.9874999E-02   -7.4653583E-10
  1.9910000E-02   -1.3490278E-09
  1.9944999E-02   -6.3299904E-10
  1.9980000E-02    6.4175726E-10
  2.0014999E-02    5.7636845E-10
  2.0050000E-02    4.4666493E-10
  2.0085000E-02    1.0701390E-09
  2.0120000E-02    4.8799681E-10
  2.0155000E-02   -1.2767237E-09
  2.0190001E-02   -1.4344776E-09
  2.0225000E-02    2.3887856E-10
  2.0260001E-02    1.4118258E-09
  2.0295000E-02    8.9902358E-10
  2.0330001E-02   -9.3136432E-10
  2.0365000E-02   -1.8502671E-09
  2.0400001E-02    7.3341971E-11
  2.0435000E-02    1.4337449E-09
  2.0470001E-02   -6.6072553E-10
  2.0505000E-02   -1.1629792E-09
  2.0540001E-02    1.5435104E-09
  2.0575000E-02    6.1694844E-10
  2.0609999E-02   -2.5385318E-09
  2.0645000E-02   -5.2123983E-10
  2.0679999E-02    1.6183117E-09
  2.0715000E-02   -1.6829568E-09
  2.0749999E-02   -2.2270659E-09
  2.0785000E-02    1.6093141E-09
  2.0819999E-02    3.8228803E-10
  2.0855000E-02   -2.8081824E-09
  2.0889999E-02    3.8736286E-10
  2.0925000E-02    3.1229570E-09
  2.0959999E-02    3.3033489E-12
  2.0995000E-02   -1.1005036E-09
  2.1029999E-02    7.2993245E-10
  2.1065000E-02   -5.1046078E-10
  2.1100000E-02   -1.0334913E-09
  2.1135001E-02    1.5257394E-09
  2.1170000E-02    9.0398711E-10
  2.1205001E-02   -9.9112418E-10
  2.1240000E-02    7.8372370E-10
  2.1275001E-02    6.5655992E-10
  2.1310000E-02   -1.8933208E-09
  2.1345001E-02   -2.0603691E-11
  2.1380000E-02    1.9175912E-09
  2.1415001E-02   -8.2362184E-10
  2.1450000E-02   -1.3247849E-09
  2.1485001E-02    6.6589267E-10
  2.1520000E-02   -2.5518282E-10
  2.1555001E-02    1.4237245E-10
  2.1590000E-02    2.4544666E-09
  2.1624999E-02    3.2739744E-10
  2.1660000E-02   -1.8366242E-09
  2.1694999E-02    7.8402834E-10
  2.1730000E-02    1.3167851E-09
  2.1764999E-02   -6.0583344E-10
  2.1800000E-02    1.2784107E-09
  2.1834999E-02    2.1002344E-09
  2.1870000E-02   -2.4382463E-09
  2.1904999E-02   -3.9111927E-09
  2.1940000E-02    4.0613593E-10
  2.1974999E-02    1.8774411E-09
  2.2010000E-02   -8.7773333E-10
  2.2045000E-02   -9.4902464E-10
  2.2080000E-02    1.6542793E-09
  2.2115000E-02    1.4075011E-09
  2.2150001E-02   -9.1478058E-10
  2.2185000E-02   -5.5783972E-10
  2.2220001E-02    2.1381183E-09
  2.2255000E-02    2.8972362E-09
  2.2290001E-02    4.0822268E-10
  2.2325000E-02   -1.7960715E-09
  2.2360001E-02   -4.8203164E-10
  2.2395000E-02    1.3949428E-09
  2.2430001E-02    7.3987524E-11
  2.2465000E-02   -1.3153182E-09
  2.2500001E-02   -4.1687165E-10
  2.2535000E-02   -4.7299775E-10
  2.2569999E-02   -5.9364952E-10
  2.2605000E-02    1.5438995E-09
  2.2639999E-02    1.2845797E-09
  2.2675000E-02   -1.3680430E-09
  2.2709999E-02    3.0239193E-11
  2.2745000E-02    2.0167652E-09
  2.2779999E-02   -5.3656379E-10
  2.2815000E-02   -1.2448862E-09
  2.2849999E-02    1.4833106E-09
  2.2885000E-02    8.2033530E-10
  2.2919999E-02   -1.0989250E-09
  2.2955000E-02    5.1437382E-11
  2.2990000E-02    2.2398208E-10
  2.3025000E-02   -9.7366082E-10
  2.3060000E-02   -3.1267289E-10
  2.3095001E-02   -2.3966334E-10
  2.3130000E-02   -8.9933988E-10
  2.3165001E-02    6.7947203E-10
  2.3200000E-02    1.3922096E-09
  2.3235001E-02   -3.6768300E-10
  2.3270000E-02   -5.1650290E-10
  2.3305001E-02    3.4201122E-10
  2.3340000E-02   -2.5825966E-10
  2.3375001E-02   -1.4569528E-10
  2.3410000E-02    4.2825127E-10
  2.3445001E-02   -6.6299988E-10
  2.3480000E-02   -8.1210272E-10
  2.3514999E-02    5.7676353E-10
  2.3550000E-02   -3.9968989E-10
  2.3584999E-02   -2.3337163E-09
  2.3620000E-02   -6.9561551E-10
  2.3654999E-02    1.2971294E-09
  2.3690000E-02   -1.1078404E-09
  2.3724999E-02   -3.1046219E-09
  2.3760000E-02   -1.5019140E-10
  2.3794999E-02    1.4314330E-09
  2.3830000E-02   -2.2887301E-09
  2.3864999E-02   -4.1870116E-09
  2.3900000E-02   -1.3288287E-09
  2.3934999E-02    1.3570292E-10
  2.3970000E-02   -9.6531727E-10
  2.4005000E-02   -1.1959610E-10
  2.4040001E-02    2.2702753E-09
  2.4075000E-02    1.8118116E-09
  2.4110001E-02   -1.5388271E-09
  2.4145000E-02   -3.0260265E-09
  2.4180001E-02   -2.1091919E-09
  2.4215000E-02   -2.6546936E-09
  2.4250001E-02   -2.0012074E-09
  2.4285000E-02    2.5193461E-09
  2.4320001E-02    2.3927975E-09
  2.4355000E-02   -3.2178165E-09
  2.4390001E-02   -2.1238615E-09
  2.4425000E-02    2.0047508E-09
  2.4460001E-02   -2.1597157E-09
  2.4495000E-02   -4.4061856E-09
  2.4529999E-02    2.4493334E-09
  2.4565000E-02    3.8500336E-09
  2.4599999E-02   -2.4020685E-09
  2.4635000E-02   -2.5269986E-09
  2.4669999E-02    1.6528614E-09
  2.4705000E-02    9.6335528E-10
  2.4739999E-02   -1.0031714E-09
  2.4775000E-02    4.1864906E-10
  2.4809999E-02    2.5856062E-09
  2.4845000E-02    2.9985050E-09
  2.4879999E-02    1.4623760E-09
  2.4915000E-02   -6.4043482E-10
  2.4950000E-02   -1.2106952E-09
  2.4985000E-02   -5.6705107E-10
  2.5020000E-02    2.4312901E-11
  2.5055001E-02    9.3010089E-10
  2.5090000E-02    1.6460898E-09
  2.5125001E-02    4.9356635E-10
  2.5160000E-02   -9.8557162E-10
  2.5195001E-02    2.8344285E-10
  2.5230000E-02    2.2437701E-09
  2.5265001E-02    1.5116920E-09
  2.5300000E-02    9.0479441E-10
  2.5335001E-02    1.9732371E-09
  2.5370000E-02    8.0826768E-10
  2.5405001E-02   -8.0725693E-10
  2.5440000E-02    1.2285637E-09
  2.5474999E-02    2.2036344E-09
  2.5510000E-02   -8.7133530E-11
  2.5544999E-02   -1.9206417E-10
  2.5580000E-02    1.0169027E-09
  2.5614999E-02    6.0988170E-10
  2.5650000E-02    1.9102484E-09
  2.5684999E-02    3.2453547E-09
  2.5720000E-02    6.9183781E-10
  2.5754999E-02   -8.0993862E-10
  2.5790000E-02    5.4067828E-10
  2.5824999E-02   -2.9255975E-10
  2.5860000E-02   -1.3733856E-09
  2.5895000E-02    2.7082472E-10
  2.5930000E-02    7.8428081E-10
  2.5965000E-02    1.5349325E-10
  2.6000001E-02    6.3311806E-10
  2.6035000E-02   -2.7795508E-10
  2.6070001E-02   -8.6851876E-10
  2.6105000E-02    1.8731463E-09
  2.6140001E-02    2.2117350E-09
  2.6175000E-02   -9.9510600E-10
  2.6210001E-02    3.7208143E-11
  2.6245000E-02    3.1698406E-09
  2.6280001E-02    1.0502494E-09
  2.6315000E-02   -1.9374369E-09
  2.6350001E-02   -1.2987136E-09
  2.6385000E-02   -1.1164925E-09
  2.6419999E-02   -1.2750256E-09
  2.6455000E-02    9.8240471E-10
  2.6489999E-02    2.2833271E-09
  2.6525000E-02    8.5318119E-10
  2.6559999E-02   -4.8578458E-10
  2.6595000E-02   -9.6812602E-10
  2.6629999E-02   -1.1838899E-09
  2.6665000E-02   -1.1724195E-09
  2.6699999E-02   -4.4830062E-10
  2.6735000E-02    1.7864940E-09
  2.6769999E-02    2.5631990E-09
  2.6805000E-02   -5.6459520E-10
  2.6839999E-02   -1.9238138E-09
  2.6875000E-02    7.3162731E-10
  2.6910000E-02    6.0967070E-10
  2.6945001E-02   -1.5693545E-09
  2.6980000E-02    4.3874529E-10