 -4.8000002E-03    1.0000000E-24
 -4.7650002E-03    1.0000002E-24
 -4.7300002E-03    1.0000001E-24
 -4.6950001E-03    1.0000000E-24
 -4.6600001E-03    1.0000003E-24
 -4.6250001E-03    1.0000002E-24
 -4.5900000E-03    9.9999992E-25
 -4.5550000E-03    1.0000001E-24
 -4.5200000E-03    1.0000000E-24
 -4.4849999E-03    9.9999992E-25
 -4.4499999E-03    1.0000002E-24
 -4.4149999E-03    1.0000002E-24
 -4.3799998E-03    9.9999963E-25
 -4.3449998E-03    9.9999972E-25
 -4.3100002E-03    1.0000005E-24
 -4.2750002E-03    1.0000002E-24
 -4.2400002E-03    9.9999992E-25
 -4.2050001E-03    1.0000004E-24
 -4.1700001E-03    1.0000006E-24
 -4.1350001E-03    9.9999953E-25
 -4.1000000E-03    9.9999933E-25
 -4.0650000E-03    1.0000004E-24
 -4.0300000E-03    1.0000002E-24
 -3.9949999E-03    9.9999953E-25
 -3.9599999E-03    1.0000003E-24
 -3.9249999E-03    1.0000007E-24
 -3.8900001E-03    9.9999963E-25
 -3.8550000E-03    9.9999953E-25
 -3.8200000E-03    1.0000005E-24
 -3.7849999E-03    1.0000002E-24
 -3.7499999E-03    9.9999972E-25
 -3.7150001E-03    1.0000005E-24
 -3.6800001E-03    1.0000007E-24
 -3.6450000E-03    9.9999963E-25
 -3.6100000E-03    9.9999953E-25
 -3.5750000E-03    1.0000000E-24
 -3.5399999E-03    9.9999992E-25
 -3.5049999E-03    9.9999992E-25
 -3.4700001E-03    1.0000006E-24
 -3.4350001E-03    1.0000005E-24
 -3.4000000E-03    1.0000001E-24
 -3.3650000E-03    9.9999982E-25
 -3.3300000E-03    1.0000000E-24
 -3.2949999E-03    9.9999982E-25
 -3.2599999E-03    9.9999982E-25
 -3.2250001E-03    1.0000001E-24
 -3.1900001E-03    1.0000000E-24
 -3.1550000E-03    1.0000001E-24
 -3.1200000E-03    1.0000004E-24
 -3.0850000E-03    1.0000004E-24
 -3.0499999E-03    9.9999982E-25
 -3.0149999E-03    9.9999972E-25
 -2.9800001E-03    1.0000004E-24
 -2.9450001E-03    1.0000002E-24
 -2.9100000E-03    9.9999972E-25
 -2.8750000E-03    1.0000002E-24
 -2.8400000E-03    1.0000001E-24
 -2.8049999E-03    1.0000000E-24
 -2.7699999E-03    1.0000004E-24
 -2.7350001E-03    1.0000003E-24
 -2.7000001E-03    9.9999982E-25
 -2.6650000E-03    9.9999943E-25
 -2.6300000E-03    1.0000000E-24
 -2.5950000E-03    1.0000001E-24
 -2.5599999E-03    1.0000001E-24
 -2.5249999E-03    1.0000003E-24
 -2.4900001E-03    1.0000007E-24
 -2.4550001E-03    1.0000002E-24
 -2.4200000E-03    9.9999923E-25
 -2.3850000E-03    1.0000002E-24
 -2.3500000E-03    1.0000008E-24
 -2.3149999E-03    9.9999903E-25
 -2.2799999E-03    9.9999864E-25
 -2.2450001E-03    1.0000004E-24
 -2.2100001E-03    1.0000010E-24
 -2.1750000E-03    1.0000000E-24
 -2.1400000E-03    9.9999824E-25
 -2.1050000E-03    1.0000021E-24
 -2.0699999E-03    1.0000064E-24
 -2.0349999E-03    9.9999055E-25
 -2.0000001E-03    9.9998947E-25
 -1.9650001E-03    1.0000330E-24
 -1.9300000E-03    9.9999805E-25
 -1.8950000E-03    9.9992468E-25
 -1.8600000E-03    1.0000774E-24
 -1.8250000E-03    1.0000874E-24
 -1.7900000E-03    9.9973319E-25
 -1.7550000E-03    1.0001372E-24
 -1.7199999E-03    1.0004631E-24
 -1.6850000E-03    9.9897470E-25
 -1.6500000E-03    1.0000944E-24
 -1.6150000E-03    1.0028654E-24
 -1.5800000E-03    9.9642964E-25
 -1.5450000E-03    9.9582063E-25
 -1.5100000E-03    1.0134984E-24
 -1.4750001E-03    9.9812815E-25
 -1.4400000E-03    9.6915842E-25
 -1.4050000E-03    1.0312818E-24
 -1.3700000E-03    1.0412736E-24
 -1.3350000E-03    8.9542714E-25
 -1.3000000E-03    1.0077308E-24
 -1.2650000E-03    1.2151279E-24
 -1.2300001E-03    7.7540491E-25
 -1.1950000E-03    7.5002513E-25
 -1.1600000E-03    1.7368404E-24
 -1.1250000E-03    8.7411153E-25
 -1.0900000E-03   -5.1851768E-25
 -1.0550000E-03    2.5183359E-24
 -1.0200000E-03    3.0317859E-24
 -9.8500005E-04   -3.5424059E-24
 -9.5000002E-04    1.8091088E-25
 -9.1499998E-04    9.9302955E-24
 -8.8000001E-04   -3.4349540E-24
 -8.4499997E-04   -1.0906542E-23
 -8.1000000E-04    1.6441709E-23
 -7.7500002E-04    7.4519296E-24
 -7.3999999E-04   -2.8574669E-23
 -7.0500001E-04    1.9825950E-23
 -6.6999998E-04    3.5202748E-23
 -6.3500000E-04   -7.4868977E-23
 -6.0000003E-04   -1.0751144E-24
 -5.6499999E-04    1.6936918E-22
 -5.3000002E-04   -1.0514568E-22
 -4.9499999E-04   -2.8034597E-22
 -4.6000001E-04    3.2602538E-22
 -4.2500001E-04    3.7979293E-22
 -3.9000000E-04   -6.4863481E-22
 -3.5500000E-04   -4.2172921E-22
 -3.1999999E-04    9.8835734E-22
 -2.8499999E-04    4.2190144E-22
 -2.5000001E-04   -1.1053533E-21
 -2.1499999E-04   -4.8941350E-22
 -1.8000000E-04    5.8430839E-22
 -1.4500000E-04    8.9656473E-22
 -1.1000000E-04    1.2766870E-21
 -7.5000004E-05   -1.9930630E-21
 -3.9999999E-05   -5.6038954E-21
 -4.9999999E-06    4.0227070E-21
  2.9999999E-05    1.4318673E-20
  6.5000000E-05   -6.6498495E-21
  9.9999997E-05   -3.0626511E-20
  1.3499999E-04    8.2445156E-21
  1.7000000E-04    5.9594531E-20
  2.0500000E-04   -4.6258262E-21
  2.3999999E-04   -1.0825702E-19
  2.7500000E-04   -1.2939192E-20
  3.1000000E-04    1.8459722E-19
  3.4500001E-04    6.1036727E-20
  3.8000001E-04   -2.9412581E-19
  4.1499999E-04   -1.6878589E-19
  4.4999999E-04    4.3252724E-19
  4.8500000E-04    3.8335760E-19
  5.2000000E-04   -5.7196236E-19
  5.5499998E-04   -7.7367929E-19
  5.9000001E-04    6.3824930E-19
  6.2499999E-04    1.4270093E-18
  6.6000002E-04   -4.7578560E-19
  6.9500000E-04   -2.4290849E-18
  7.3000003E-04   -2.0058283E-19
  7.6500000E-04    3.8138031E-18
  7.9999998E-04    1.8622063E-18
  8.3500001E-04   -5.4625072E-18
  8.6999999E-04   -5.2141433E-18
  9.0500002E-04    6.9300935E-18
  9.4000000E-04    1.1196043E-17
  9.7499997E-04   -7.1764172E-18
  1.0100000E-03   -2.0869704E-17
  1.0450000E-03    4.1995451E-18
  1.0800000E-03    3.5092995E-17
  1.1150000E-03    5.3873880E-18
  1.1500000E-03   -5.3847906E-17
  1.1849999E-03   -2.6717873E-17
  1.2200000E-03    7.5080484E-17
  1.2550000E-03    6.6725437E-17
  1.2900000E-03   -9.2936892E-17
  1.3250000E-03   -1.3347572E-16
  1.3600000E-03    9.5404960E-17
  1.3950000E-03    2.3416292E-16
  1.4299999E-03   -6.1653993E-17
  1.4650000E-03   -3.7101234E-16
  1.5000000E-03   -4.0100704E-17
  1.5350000E-03    5.3437726E-16
  1.5700000E-03    2.5273195E-16
  1.6050000E-03   -6.9267215E-16
  1.6400000E-03   -6.2602140E-16
  1.6749999E-03    7.7968170E-16
  1.7100000E-03    1.2051617E-15
  1.7450000E-03   -6.8130883E-16
  1.7800000E-03   -2.0085383E-15
  1.8150000E-03    2.2627752E-16
  1.8500000E-03    2.9921073E-15
  1.8850000E-03    8.1127958E-16
  1.9200000E-03   -3.9998573E-15
  1.9550000E-03   -2.6859152E-15
  1.9900000E-03    4.7061633E-15
  2.0250001E-03    5.6186914E-15
  2.0600001E-03   -4.5632651E-15
  2.0949999E-03   -9.6871118E-15
  2.1299999E-03    2.7781239E-15
  2.1650000E-03    1.4664039E-14
  2.2000000E-03    1.6476317E-15
  2.2350000E-03   -1.9814918E-14
  2.2700001E-03   -9.7726291E-15
  2.3050001E-03    2.3684163E-14
  2.3399999E-03    2.2420976E-14
  2.3749999E-03   -2.3939802E-14
  2.4100000E-03   -3.9708203E-14
  2.4450000E-03    1.7380078E-14
  2.4800000E-03    6.0408282E-14
  2.5150001E-03   -2.3870685E-16
  2.5500001E-03   -8.1252415E-14
  2.5849999E-03   -3.1085699E-14
  2.6199999E-03    9.6343215E-14
  2.6550000E-03    7.8803873E-14
  2.6900000E-03   -9.6949128E-14
  2.7250000E-03   -1.4203956E-13
  2.7600001E-03    7.1996418E-14
  2.7950001E-03    2.1482424E-13
  2.8299999E-03   -9.6425621E-15
  2.8649999E-03   -2.8419427E-13
  2.9000000E-03   -9.9770988E-14
  2.9350000E-03    3.2912410E-13
  2.9700000E-03    2.5936452E-13
  3.0050001E-03   -3.2126724E-13
  3.0400001E-03   -4.6052620E-13
  3.0749999E-03    2.2840527E-13
  3.1099999E-03    6.7804762E-13
  3.1450000E-03   -2.1009195E-14
  3.1800000E-03   -8.6707936E-13
  3.2150000E-03   -3.1815506E-13
  3.2500001E-03    9.6372595E-13
  3.2850001E-03    7.8224964E-13
  3.3199999E-03   -8.9123148E-13
  3.3549999E-03   -1.3283061E-12
  3.3900000E-03    5.7367544E-13
  3.4250000E-03    1.8688113E-12
  3.4600000E-03    4.2644101E-14
  3.4950001E-03   -2.2720825E-12
  3.5300001E-03   -9.6329531E-13
  3.5649999E-03    2.3757667E-12
  3.5999999E-03    2.1213582E-12
  3.6350000E-03   -2.0146241E-12
  3.6700000E-03   -3.3619195E-12
  3.7050000E-03    1.0605117E-12
  3.7400001E-03    4.4418674E-12
  3.7750001E-03    5.2964171E-13
  3.8099999E-03   -5.0518253E-12
  3.8449999E-03   -2.6657231E-12
  3.8800000E-03    4.8662476E-12
  3.9149998E-03    5.0908002E-12
  3.9499998E-03   -3.6217383E-12
  3.9849998E-03   -7.3815823E-12
  4.0199999E-03    1.2097600E-12
  4.0549999E-03    8.9983862E-12
  4.0899999E-03    2.2434368E-12
  4.1250000E-03   -9.3832980E-12
  4.1600000E-03   -6.3379267E-12
  4.1950000E-03    8.0866659E-12
  4.2300001E-03    1.0416597E-11
  4.2650001E-03   -4.8991540E-12
  4.3000001E-03   -1.3641551E-11
  4.3350002E-03   -3.0992227E-14
  4.3700002E-03    1.5135988E-11
  4.4049998E-03    6.1251503E-12
  4.4399998E-03   -1.4193489E-11
  4.4749998E-03   -1.2401857E-11
  4.5099999E-03    1.0509032E-11
  4.5449999E-03    1.7645985E-11
  4.5799999E-03   -4.3352271E-12
  4.6150000E-03   -2.0681019E-11
  4.6500000E-03   -3.5120314E-12
  4.6850001E-03    2.0643088E-11
  4.7200001E-03    1.1782974E-11
  4.7550001E-03   -1.7187286E-11
  4.7900002E-03   -1.9004711E-11
  4.8250002E-03    1.0620327E-11
  4.8600002E-03    2.3766501E-11
  4.8949998E-03   -1.9259223E-12
  4.9299998E-03   -2.5065491E-11
  4.9649999E-03   -7.3977456E-12
  4.9999999E-03    2.2605584E-11
  5.0349999E-03    1.5698011E-11
  5.0700000E-03   -1.6900419E-11
  5.1050000E-03   -2.1611397E-11
  5.1400000E-03    9.1087702E-12
  5.1750001E-03    2.4423298E-11
  5.2100001E-03   -6.3239068E-13
  5.2450001E-03   -2.4163003E-11
  5.2800002E-03   -7.3502922E-12
  5.3150002E-03    2.1348669E-11
  5.3500002E-03    1.4099215E-11
  5.3849998E-03   -1.6629351E-11
  5.4199998E-03   -1.9202577E-11
  5.4549999E-03    1.0683852E-11
  5.4899999E-03    2.2541840E-11
  5.5249999E-03   -4.1691364E-12
  5.5600000E-03   -2.4439336E-11
  5.5950000E-03   -2.7402165E-12
  5.6300000E-03    2.5282122E-11
  5.6650001E-03    1.0648873E-11
  5.7000001E-03   -2.4507094E-11
  5.7350001E-03   -2.0014528E-11
  5.7700002E-03    2.0435523E-11
  5.8050002E-03    2.9801342E-11
  5.8400002E-03   -1.1671250E-11
  5.8749998E-03   -3.7648509E-11
  5.9099998E-03   -1.7987727E-12
  5.9449999E-03    4.1043891E-11
  5.9799999E-03    1.8933995E-11
  6.0149999E-03   -3.7447052E-11
  6.0500000E-03   -3.7465444E-11
  6.0850000E-03    2.4361763E-11
  6.1200000E-03    5.2740156E-11
  6.1550001E-03   -1.4773825E-12
  6.1900001E-03   -5.8677743E-11
  6.2250001E-03   -2.7497057E-11
  6.2600002E-03    5.0955188E-11
  6.2950002E-03    5.6270794E-11
  6.3299998E-03   -2.8230359E-11
  6.3649998E-03   -7.7644370E-11
  6.3999998E-03   -8.1421545E-12
  6.4349999E-03    8.3253730E-11
  6.4699999E-03    5.1748245E-11
  6.5049999E-03   -6.6508403E-11
  6.5400000E-03   -9.0100934E-11
  6.5750000E-03    2.8959127E-11
  6.6100000E-03    1.1134162E-10
  6.6450001E-03    2.0243316E-11
  6.6800001E-03   -1.1047672E-10
  6.7150001E-03   -7.1884415E-11
  6.7500002E-03    8.5395933E-11
  6.7850002E-03    1.1633003E-10
  6.8199998E-03   -3.4948277E-11
  6.8549998E-03   -1.3805433E-10
  6.8899998E-03   -3.1170719E-11
  6.9249999E-03    1.2466980E-10
  6.9599999E-03    9.1437719E-11
  6.9949999E-03   -8.0544085E-11
  7.0300000E-03   -1.2930335E-10
  7.0650000E-03    2.0241461E-11
  7.1000000E-03    1.4114476E-10
  7.1350001E-03    4.6256977E-11
  7.1700001E-03   -1.2511066E-10
  7.2050001E-03   -1.1108418E-10
  7.2400002E-03    7.4015502E-11
  7.2750002E-03    1.5140394E-10
  7.3099998E-03    6.7376963E-13
  7.3449998E-03   -1.4859282E-10
  7.3799998E-03   -6.7573690E-11
  7.4149999E-03    1.1572109E-10
  7.4499999E-03    1.1843190E-10
  7.4850000E-03   -5.5174604E-11
  7.5200000E-03   -1.3145485E-10
  7.5550000E-03   -2.7867550E-14
  7.5900001E-03    1.3287013E-10
  7.6250001E-03    8.0161461E-11
  7.6600001E-03   -5.8953030E-11
  7.6950002E-03   -7.9657593E-11
  7.7300002E-03    3.4743309E-11
  7.7650002E-03    1.2562296E-10
  7.7999998E-03    8.7671544E-11
  7.8349998E-03   -1.0615246E-11
  7.8699999E-03   -2.0858875E-11
  7.9049999E-03    9.9070314E-11
  7.9399999E-03    2.1209959E-10
  7.9750000E-03    1.7257379E-10
  8.0100000E-03    5.6386854E-11
  8.0450000E-03    8.1873487E-11
  8.0800001E-03    2.7267177E-10
  8.1150001E-03    3.9614542E-10
  8.1500001E-03    3.3117092E-10
  8.1850002E-03    2.7835972E-10
  8.2200002E-03    4.3933493E-10
  8.2550002E-03    6.8864764E-10
  8.2900003E-03    7.8686452E-10
  8.3250003E-03    7.6859064E-10
  8.3600003E-03    8.7375218E-10
  8.3950004E-03    1.1783992E-09
  8.4300004E-03    1.5153248E-09
  8.4650004E-03    1.7371616E-09
  8.5000005E-03    1.9063502E-09
  8.5349996E-03    2.2129711E-09
  8.5699996E-03    2.7482918E-09
  8.6049996E-03    3.3680416E-09
  8.6399997E-03    3.8648529E-09
  8.6749997E-03    4.3146815E-09
  8.7099997E-03    5.0460747E-09
  8.7449998E-03    6.1451551E-09
  8.7799998E-03    7.2864328E-09
  8.8149998E-03    8.2778628E-09
  8.8499999E-03    9.4399599E-09
  8.8849999E-03    1.1115159E-08
  8.9199999E-03    1.3124247E-08
  8.9550000E-03    1.5129961E-08
  8.9900000E-03    1.7259756E-08
  9.0250000E-03    1.9900479E-08
  9.0600001E-03    2.3107701E-08
  9.0950001E-03    2.6680167E-08
  9.1300001E-03    3.0614483E-08
  9.1650002E-03    3.5089680E-08
  9.2000002E-03    4.0211656E-08
  9.2350002E-03    4.6063359E-08
  9.2700003E-03    5.2761980E-08
  9.3050003E-03    6.0298220E-08
  9.3400003E-03    6.8636979E-08
  9.3750004E-03    7.8059649E-08
  9.4100004E-03    8.8964200E-08
  9.4450004E-03    1.0129987E-07
  9.4799995E-03    1.1479877E-07
  9.5149996E-03    1.2977242E-07
  9.5499996E-03    1.4692760E-07
  9.5849996E-03    1.6641128E-07
  9.6199997E-03    1.8787495E-07
  9.6549997E-03    2.1150156E-07
  9.6899997E-03    2.3808835E-07
  9.7249998E-03    2.6810085E-07
  9.7599998E-03    3.0138324E-07
  9.7949998E-03    3.3792588E-07
  9.8299999E-03    3.7842818E-07
  9.8649999E-03    4.2371198E-07
  9.8999999E-03    4.7397904E-07
  9.9350000E-03    5.2924145E-07
  9.9700000E-03    5.9005379E-07
  1.0005000E-02    6.5723287E-07
  1.0040000E-02    7.3141564E-07
  1.0075000E-02    8.1310662E-07
  1.0110000E-02    9.0266639E-07
  1.0145000E-02    1.0006337E-06
  1.0180000E-02    1.1081227E-06
  1.0215000E-02    1.2261343E-06
  1.0250000E-02    1.3550774E-06
  1.0285000E-02    1.4955298E-06
  1.0320000E-02    1.6486899E-06
  1.0355000E-02    1.8156956E-06
  1.0390000E-02    1.9975489E-06
  1.0425000E-02    2.1950775E-06
  1.0460000E-02    2.4090475E-06
  1.0495000E-02    2.6408959E-06
  1.0530000E-02    2.8924023E-06
  1.0565000E-02    3.1644340E-06
  1.0600000E-02    3.4577708E-06
  1.0635000E-02    3.7741816E-06
  1.0670000E-02    4.1153212E-06
  1.0705000E-02    4.4824178E-06
  1.0740000E-02    4.8770698E-06
  1.0775000E-02    5.3006088E-06
  1.0810000E-02    5.7545194E-06
  1.0845000E-02    6.2409285E-06
  1.0880000E-02    6.7613428E-06
  1.0915000E-02    7.3170218E-06
  1.0950000E-02    7.9101810E-06
  1.0985000E-02    8.5426418E-06
  1.1020000E-02    9.2155014E-06
  1.1055000E-02    9.9309609E-06
  1.1090000E-02    1.0691326E-05
  1.1125000E-02    1.1497506E-05
  1.1160000E-02    1.2351264E-05
  1.1195000E-02    1.3255189E-05
  1.1230000E-02    1.4210613E-05
  1.1265000E-02    1.5218720E-05
  1.1300000E-02    1.6281678E-05
  1.1335000E-02    1.7401348E-05
  1.1370000E-02    1.8578670E-05
  1.1405000E-02    1.9815043E-05
  1.1440000E-02    2.1112310E-05
  1.1475000E-02    2.2471670E-05
  1.1510000E-02    2.3894585E-05
  1.1545000E-02    2.5381447E-05
  1.1580000E-02    2.6932696E-05
  1.1615000E-02    2.8550730E-05
  1.1650000E-02    3.0235755E-05
  1.1685000E-02    3.1986394E-05
  1.1720000E-02    3.3804055E-05
  1.1755000E-02    3.5690293E-05
  1.1790000E-02    3.7643578E-05
  1.1825000E-02    3.9662998E-05
  1.1860000E-02    4.1748812E-05
  1.1895000E-02    4.3899858E-05
  1.1930000E-02    4.6115401E-05
  1.1965000E-02    4.8393515E-05
  1.2000000E-02    5.0732393E-05
  1.2035000E-02    5.3131891E-05
  1.2070000E-02    5.5588709E-05
  1.2105000E-02    5.8097685E-05
  1.2140000E-02    6.0659437E-05
  1.2175000E-02    6.3272921E-05
  1.2210000E-02    6.5929897E-05
  1.2245000E-02    6.8625748E-05
  1.2280000E-02    7.1361072E-05
  1.2315000E-02    7.4130810E-05
  1.2350000E-02    7.6927456E-05
  1.2385000E-02    7.9747530E-05
  1.2420000E-02    8.2585873E-05
  1.2455000E-02    8.5437270E-05
  1.2490000E-02    8.8296911E-05
  1.2525000E-02    9.1155620E-05
  1.2560000E-02    9.4006980E-05
  1.2595000E-02    9.6849006E-05
  1.2630000E-02    9.9670870E-05
  1.2665000E-02    1.0246282E-04
  1.2700000E-02    1.0522387E-04
  1.2735000E-02    1.0794523E-04
  1.2770000E-02    1.1061462E-04
  1.2805000E-02    1.1322893E-04
  1.2840000E-02    1.1578085E-04
  1.2875000E-02    1.1825702E-04
  1.2910000E-02    1.2065444E-04
  1.2945000E-02    1.2296668E-04
  1.2980000E-02    1.2517849E-04
  1.3015000E-02    1.2728648E-04
  1.3050000E-02    1.2928652E-04
  1.3085000E-02    1.3116424E-04
  1.3120000E-02    1.3291565E-04
  1.3155000E-02    1.3453701E-04
  1.3190000E-02    1.3601413E-04
  1.3225000E-02    1.3734265E-04
  1.3260000E-02    1.3852066E-04
  1.3295000E-02    1.3953533E-04
  1.3330000E-02    1.4038288E-04
  1.3365000E-02    1.4106558E-04
  1.3400000E-02    1.4157069E-04
  1.3435000E-02    1.4189140E-04
  1.3470000E-02    1.4203283E-04
  1.3505000E-02    1.4198647E-04
  1.3540000E-02    1.4174602E-04
  1.3575000E-02    1.4131972E-04
  1.3610000E-02    1.4070231E-04
  1.3645000E-02    1.3988384E-04
  1.3680000E-02    1.3887287E-04
  1.3715000E-02    1.3767301E-04
  1.3750000E-02    1.3627748E-04
  1.3785000E-02    1.3469087E-04
  1.3820000E-02    1.3291884E-04
  1.3855000E-02    1.3096200E-04
  1.3890000E-02    1.2882541E-04
  1.3925000E-02    1.2651326E-04
  1.3960000E-02    1.2402951E-04
  1.3995000E-02    1.2138394E-04
  1.4030000E-02    1.1858220E-04
  1.4065000E-02    1.1562724E-04
  1.4100000E-02    1.1253184E-04
  1.4135000E-02    1.0930503E-04
  1.4170000E-02    1.0595103E-04
  1.4205000E-02    1.0248512E-04
  1.4240000E-02    9.8916840E-05
  1.4275000E-02    9.5249219E-05
  1.4310000E-02    9.1501097E-05
  1.4345000E-02    8.7687382E-05
  1.4380000E-02    8.3806284E-05
  1.4415000E-02    7.9873484E-05
  1.4450000E-02    7.5914155E-05
  1.4485000E-02    7.1929557E-05
  1.4520000E-02    6.7925539E-05
  1.4555000E-02    6.3926374E-05
  1.4590000E-02    5.9941398E-05
  1.4625000E-02    5.5975979E-05
  1.4660000E-02    5.2048388E-05
  1.4695000E-02    4.8170266E-05
  1.4730000E-02    4.4348544E-05
  1.4765000E-02    4.0598228E-05
  1.4800000E-02    3.6930185E-05
  1.4835000E-02    3.3350479E-05
  1.4870000E-02    2.9870249E-05
  1.4905000E-02    2.6499843E-05
  1.4940000E-02    2.3247658E-05
  1.4975000E-02    2.0122376E-05
  1.5010000E-02    1.7129343E-05
  1.5045000E-02    1.4274732E-05
  1.5080000E-02    1.1566395E-05
  1.5115000E-02    9.0074600E-06
  1.5150000E-02    6.6011162E-06
  1.5185000E-02    4.3538103E-06
  1.5220000E-02    2.2658835E-06
  1.5255000E-02    3.3712064E-07
  1.5290000E-02   -1.4273280E-06
  1.5325000E-02   -3.0281092E-06
  1.5360000E-02   -4.4690328E-06
  1.5395000E-02   -5.7490279E-06
  1.5430000E-02   -6.8706108E-06
  1.5465000E-02   -7.8407083E-06
  1.5500000E-02   -8.6608252E-06
  1.5535000E-02   -9.3329736E-06
  1.5570000E-02   -9.8645678E-06
  1.5605000E-02   -1.0261747E-05
  1.5640000E-02   -1.0529936E-05
  1.5675001E-02   -1.0677870E-05
  1.5710000E-02   -1.0712608E-05
  1.5745001E-02   -1.0638464E-05
  1.5780000E-02   -1.0464686E-05
  1.5814999E-02   -1.0203774E-05
  1.5850000E-02   -9.8641776E-06
  1.5884999E-02   -9.4512243E-06
  1.5920000E-02   -8.9734058E-06
  1.5954999E-02   -8.4426410E-06
  1.5990000E-02   -7.8681269E-06
  1.6024999E-02   -7.2565563E-06
  1.6060000E-02   -6.6172429E-06
  1.6094999E-02   -5.9604031E-06
  1.6130000E-02   -5.2926234E-06
  1.6164999E-02   -4.6217974E-06
  1.6200000E-02   -3.9588117E-06
  1.6235000E-02   -3.3090805E-06
  1.6270000E-02   -2.6753569E-06
  1.6305000E-02   -2.0677790E-06
  1.6340001E-02   -1.4957388E-06
  1.6375000E-02   -9.5957193E-07
  1.6410001E-02   -4.6286505E-07
  1.6445000E-02   -1.4813277E-08
  1.6480001E-02    3.8288400E-07
  1.6515000E-02    7.3106457E-07
  1.6550001E-02    1.0237295E-06
  1.6585000E-02    1.2580784E-06
  1.6620001E-02    1.4364210E-06
  1.6655000E-02    1.5567704E-06
  1.6690001E-02    1.6179966E-06
  1.6725000E-02    1.6237337E-06
  1.6759999E-02    1.5742384E-06
  1.6795000E-02    1.4686700E-06
  1.6829999E-02    1.3125522E-06
  1.6865000E-02    1.1096568E-06
  1.6899999E-02    8.5730488E-07
  1.6935000E-02    5.5869248E-07
  1.6969999E-02    2.2568857E-07
  1.7005000E-02   -1.3740882E-07
  1.7039999E-02   -5.3480773E-07
  1.7075000E-02   -9.6115662E-07
  1.7109999E-02   -1.4044159E-06
  1.7145000E-02   -1.8634261E-06
  1.7180000E-02   -2.3392101E-06
  1.7215000E-02   -2.8214315E-06
  1.7250000E-02   -3.3014844E-06
  1.7285001E-02   -3.7795469E-06
  1.7320000E-02   -4.2526253E-06
  1.7355001E-02   -4.7140547E-06
  1.7390000E-02   -5.1604325E-06
  1.7425001E-02   -5.5890705E-06
  1.7460000E-02   -5.9952672E-06
  1.7495001E-02   -6.3743300E-06
  1.7530000E-02   -6.7235319E-06
  1.7565001E-02   -7.0420319E-06
  1.7600000E-02   -7.3277142E-06
  1.7635001E-02   -7.5777475E-06
  1.7670000E-02   -7.7912127E-06
  1.7704999E-02   -7.9672045E-06
  1.7740000E-02   -8.1057151E-06
  1.7774999E-02   -8.2064662E-06
  1.7810000E-02   -8.2668030E-06
  1.7844999E-02   -8.2898387E-06
  1.7880000E-02   -8.2804245E-06
  1.7914999E-02   -8.2333581E-06
  1.7950000E-02   -8.1494281E-06
  1.7984999E-02   -8.0399559E-06
  1.8020000E-02   -7.9010078E-06
  1.8054999E-02   -7.7262011E-06
  1.8090000E-02   -7.5294088E-06
  1.8124999E-02   -7.3160754E-06
  1.8160000E-02   -7.0788078E-06
  1.8195000E-02   -6.8263153E-06
  1.8230001E-02   -6.5648883E-06
  1.8265000E-02   -6.2877766E-06
  1.8300001E-02   -6.0034267E-06
  1.8335000E-02   -5.7209313E-06
  1.8370001E-02   -5.4332877E-06
  1.8405000E-02   -5.1453421E-06
  1.8440001E-02   -4.8665083E-06
  1.8475000E-02   -4.5911274E-06
  1.8510001E-02   -4.3222017E-06
  1.8545000E-02   -4.0690898E-06
  1.8580001E-02   -3.8268690E-06
  1.8615000E-02   -3.5952930E-06
  1.8650001E-02   -3.3817253E-06
  1.8685000E-02   -3.1836826E-06
  1.8719999E-02   -3.0000183E-06
  1.8755000E-02   -2.8326128E-06
  1.8789999E-02   -2.6788200E-06
  1.8825000E-02   -2.5429060E-06
  1.8859999E-02   -2.4256285E-06
  1.8895000E-02   -2.3153773E-06
  1.8929999E-02   -2.2139739E-06
  1.8965000E-02   -2.1291569E-06
  1.8999999E-02   -2.0504142E-06
  1.9035000E-02   -1.9719412E-06
  1.9069999E-02   -1.8992345E-06
  1.9105000E-02   -1.8263124E-06
  1.9140000E-02   -1.7480926E-06
  1.9175000E-02   -1.6675684E-06
  1.9210000E-02   -1.5774092E-06
  1.9245001E-02   -1.4702347E-06
  1.9280000E-02   -1.3488562E-06
  1.9315001E-02   -1.2105257E-06
  1.9350000E-02   -1.0492782E-06
  1.9385001E-02   -8.6347148E-07
  1.9420000E-02   -6.4916219E-07
  1.9455001E-02   -4.0451852E-07
  1.9490000E-02   -1.3047332E-07
  1.9525001E-02    1.7831569E-07
  1.9560000E-02    5.2619544E-07
  1.9595001E-02    9.1117971E-07
  1.9630000E-02    1.3325996E-06
  1.9664999E-02    1.7907960E-06
  1.9700000E-02    2.2868710E-06
  1.9734999E-02    2.8227303E-06
  1.9770000E-02    3.3944514E-06
  1.9804999E-02    3.9978650E-06
  1.9840000E-02    4.6345845E-06
  1.9874999E-02    5.3024291E-06
  1.9910000E-02    5.9951408E-06
  1.9944999E-02    6.7091955E-06
  1.9980000E-02    7.4401191E-06
  2.0014999E-02    8.1832668E-06
  2.0050000E-02    8.9342711E-06
  2.0085000E-02    9.6837566E-06
  2.0120000E-02    1.0424571E-05
  2.0155000E-02    1.1153561E-05
  2.0190001E-02    1.1860560E-05
  2.0225000E-02    1.2535117E-05
  2.0260001E-02    1.3173361E-05
  2.0295000E-02    1.3767144E-05
  2.0330001E-02    1.4305105E-05
  2.0365000E-02    1.4778084E-05
  2.0400001E-02    1.5174557E-05
  2.0435000E-02    1.5486599E-05
  2.0470001E-02    1.5709267E-05
  2.0505000E-02    1.5829954E-05
  2.0540001E-02    1.5838821E-05
  2.0575000E-02    1.5732292E-05
  2.0609999E-02    1.5497590E-05
  2.0645000E-02    1.5123954E-05
  2.0679999E-02    1.4612213E-05
  2.0715000E-02    1.3954014E-05
  2.0749999E-02    1.3136204E-05
  2.0785000E-02    1.2158767E-05
  2.0819999E-02    1.1020074E-05
  2.0855000E-02    9.7119146E-06
  2.0889999E-02    8.2333263E-06
  2.0925000E-02    6.5839686E-06
  2.0959999E-02    4.7614644E-06
  2.0995000E-02    2.7687038E-06
  2.1029999E-02    6.0570409E-07
  2.1065000E-02   -1.7270395E-06
  2.1100000E-02   -4.2190318E-06
  2.1135001E-02   -6.8646900E-06
  2.1170000E-02   -9.6642116E-06
  2.1205001E-02   -1.2606848E-05
  2.1240000E-02   -1.5679827E-05
  2.1275001E-02   -1.8875993E-05
  2.1310000E-02   -2.2183074E-05
  2.1345001E-02   -2.5587273E-05
  2.1380000E-02   -2.9076547E-05
  2.1415001E-02   -3.2634332E-05
  2.1450000E-02   -3.6245936E-05
  2.1485001E-02   -3.9897495E-05
  2.1520000E-02   -4.3567714E-05
  2.1555001E-02   -4.7239359E-05
  2.1590000E-02   -5.0899846E-05
  2.1624999E-02   -5.4525579E-05
  2.1660000E-02   -5.8093479E-05
  2.1694999E-02   -6.1591534E-05
  2.1730000E-02   -6.5001892E-05
  2.1764999E-02   -6.8301080E-05
  2.1800000E-02   -7.1472234E-05
  2.1834999E-02   -7.4498421E-05
  2.1870000E-02   -7.7360353E-05
  2.1904999E-02   -8.0042664E-05
  2.1940000E-02   -8.2530423E-05
  2.1974999E-02   -8.4808256E-05
  2.2010000E-02   -8.6861633E-05
  2.2045000E-02   -8.8676024E-05
  2.2080000E-02   -9.0241818E-05
  2.2115000E-02   -9.1551687E-05
  2.2150001E-02   -9.2594040E-05
  2.2185000E-02   -9.3361043E-05
  2.2220001E-02   -9.3850264E-05
  2.2255000E-02   -9.4055264E-05
  2.2290001E-02   -9.3972842E-05
  2.2325000E-02   -9.3607057E-05
  2.2360001E-02   -9.2957482E-05
  2.2395000E-02   -9.2022543E-05
  2.2430001E-02   -9.0808710E-05
  2.2465000E-02   -8.9322974E-05
  2.2500001E-02   -8.7571483E-05
  2.2535000E-02   -8.5565109E-05
  2.2569999E-02   -8.3313957E-05
  2.2605000E-02   -8.0824633E-05
  2.2639999E-02   -7.8108140E-05
  2.2675000E-02   -7.5182485E-05
  2.2709999E-02   -7.2064620E-05
  2.2745000E-02   -6.8764959E-05
  2.2779999E-02   -6.5297005E-05
  2.2815000E-02   -6.1682797E-05
  2.2849999E-02   -5.7938756E-05
  2.2885000E-02   -5.4075263E-05
  2.2919999E-02   -5.0112059E-05
  2.2955000E-02   -4.6069130E-05
  2.2990000E-02   -4.1959560E-05
  2.3025000E-02   -3.7803231E-05
  2.3060000E-02   -3.3618810E-05
  2.3095001E-02   -2.9414003E-05
  2.3130000E-02   -2.5205834E-05
  2.3165001E-02   -2.1017318E-05
  2.3200000E-02   -1.6857282E-05
  2.3235001E-02   -1.2735449E-05
  2.3270000E-02   -8.6703603E-06
  2.3305001E-02   -4.6722489E-06
  2.3340000E-02   -7.4926214E-07
  2.3375001E-02    3.0850993E-06
  2.3410000E-02    6.8235854E-06
  2.3445001E-02    1.0460268E-05
  2.3480000E-02    1.3984970E-05
  2.3514999E-02    1.7393069E-05
  2.3550000E-02    2.0680911E-05
  2.3584999E-02    2.3840978E-05
  2.3620000E-02    2.6869600E-05
  2.3654999E-02    2.9765102E-05
  2.3690000E-02    3.2526146E-05
  2.3724999E-02    3.5152967E-05
  2.3760000E-02    3.7640999E-05
  2.3794999E-02    3.9989271E-05
  2.3830000E-02    4.2206106E-05
  2.3864999E-02    4.4290395E-05
  2.3900000E-02    4.6236146E-05
  2.3934999E-02    4.8050879E-05
  2.3970000E-02    4.9739163E-05
  2.4005000E-02    5.1297244E-05
  2.4040001E-02    5.2732114E-05
  2.4075000E-02    5.4050251E-05
  2.4110001E-02    5.5248460E-05
  2.4145000E-02    5.6331333E-05
  2.4180001E-02    5.7304522E-05
  2.4215000E-02    5.8166293E-05
  2.4250001E-02    5.8923877E-05
  2.4285000E-02    5.9586262E-05
  2.4320001E-02    6.0151466E-05
  2.4355000E-02    6.0621060E-05
  2.4390001E-02    6.0999726E-05
  2.4425000E-02    6.1288090E-05
  2.4460001E-02    6.1494095E-05
  2.4495000E-02    6.1624291E-05
  2.4529999E-02    6.1674196E-05
  2.4565000E-02    6.1647886E-05
  2.4599999E-02    6.1554347E-05
  2.4635000E-02    6.1389896E-05
  2.4669999E-02    6.1157065E-05
  2.4705000E-02    6.0867744E-05
  2.4739999E-02    6.0518669E-05
  2.4775000E-02    6.0105645E-05
  2.4809999E-02    5.9641086E-05
  2.4845000E-02    5.9129212E-05
  2.4879999E-02    5.8563463E-05
  2.4915000E-02    5.7950863E-05
  2.4950000E-02    5.7300043E-05
  2.4985000E-02    5.6606335E-05
  2.5020000E-02    5.5870580E-05
  2.5055001E-02    5.5101274E-05
  2.5090000E-02    5.4298340E-05
  2.5125001E-02    5.3461743E-05
  2.5160000E-02    5.2598811E-05
  2.5195001E-02    5.1710522E-05
  2.5230000E-02    5.0794293E-05
  2.5265001E-02    4.9855753E-05
  2.5300000E-02    4.8899765E-05
  2.5335001E-02    4.7925445E-05
  2.5370000E-02    4.6934922E-05
  2.5405001E-02    4.5931247E-05
  2.5440000E-02    4.4914126E-05
  2.5474999E-02    4.3884353E-05
  2.5510000E-02    4.2844404E-05
  2.5544999E-02    4.1798245E-05
  2.5580000E-02    4.0749419E-05
  2.5614999E-02    3.9694747E-05
  2.5650000E-02    3.8632843E-05
  2.5684999E-02    3.7570255E-05
  2.5720000E-02    3.6506062E-05
  2.5754999E-02    3.5435216E-05
  2.5790000E-02    3.4365941E-05
  2.5824999E-02    3.3302909E-05
  2.5860000E-02    3.2236567E-05
  2.5895000E-02    3.1167634E-05
  2.5930000E-02    3.0104235E-05
  2.5965000E-02    2.9041068E-05
  2.6000001E-02    2.7975024E-05
  2.6035000E-02    2.6913918E-05
  2.6070001E-02    2.5856787E-05
  2.6105000E-02    2.4797906E-05
  2.6140001E-02    2.3741817E-05
  2.6175000E-02    2.2691487E-05
  2.6210001E-02    2.1640944E-05
  2.6245000E-02    2.0589183E-05
  2.6280001E-02    1.9542162E-05
  2.6315000E-02    1.8499793E-05
  2.6350001E-02    1.7457123E-05
  2.6385000E-02    1.6416359E-05
  2.6419999E-02    1.5381916E-05
  2.6455000E-02    1.4350129E-05
  2.6489999E-02    1.3319859E-05
  2.6525000E-02    1.2297329E-05
  2.6559999E-02    1.1281032E-05
  2.6595000E-02    1.0265312E-05
  2.6629999E-02    9.2549108E-06
  2.6665000E-02    8.2546503E-06
  2.6699999E-02    7.2610715E-06
  2.6735000E-02    6.2738495E-06
  2.6769999E-02    5.2970040E-06
  2.6805000E-02    4.3312716E-06
  2.6839999E-02    3.3751844E-06
  2.6875000E-02    2.4291401E-06
  2.6910000E-02    1.4963031E-06
  2.6945001E-02    5.7771035E-07
  2.6980000E-02   -3.2971207E-07