 -4.8000002E-03    1.0000000E-24
 -4.7650002E-03    1.0000002E-24
 -4.7300002E-03    1.0000001E-24
 -4.6950001E-03    1.0000000E-24
 -4.6600001E-03    1.0000002E-24
 -4.6250001E-03    1.0000001E-24
 -4.5900000E-03    1.0000000E-24
 -4.5550000E-03    1.0000003E-24
 -4.5200000E-03    1.0000002E-24
 -4.4849999E-03    9.9999963E-25
 -4.4499999E-03    1.0000001E-24
 -4.4149999E-03    1.0000005E-24
 -4.3799998E-03    1.0000000E-24
 -4.3449998E-03    9.9999972E-25
 -4.3100002E-03    1.0000003E-24
 -4.2750002E-03    1.0000003E-24
 -4.2400002E-03    1.0000003E-24
 -4.2050001E-03    1.0000003E-24
 -4.1700001E-03    9.9999982E-25
 -4.1350001E-03    9.9999982E-25
 -4.1000000E-03    1.0000004E-24
 -4.0650000E-03    9.9999982E-25
 -4.0300000E-03    9.9999953E-25
 -3.9949999E-03    1.0000002E-24
 -3.9599999E-03    1.0000003E-24
 -3.9249999E-03    9.9999982E-25
 -3.8900001E-03    1.0000003E-24
 -3.8550000E-03    1.0000006E-24
 -3.8200000E-03    9.9999972E-25
 -3.7849999E-03    9.9999963E-25
 -3.7499999E-03    1.0000005E-24
 -3.7150001E-03    1.0000003E-24
 -3.6800001E-03    9.9999953E-25
 -3.6450000E-03    1.0000000E-24
 -3.6100000E-03    1.0000008E-24
 -3.5750000E-03    1.0000000E-24
 -3.5399999E-03    9.9999923E-25
 -3.5049999E-03    9.9999982E-25
 -3.4700001E-03    1.0000007E-24
 -3.4350001E-03    1.0000003E-24
 -3.4000000E-03    1.0000001E-24
 -3.3650000E-03    9.9999992E-25
 -3.3300000E-03    9.9999972E-25
 -3.2949999E-03    1.0000001E-24
 -3.2599999E-03    1.0000007E-24
 -3.2250001E-03    1.0000003E-24
 -3.1900001E-03    9.9999923E-25
 -3.1550000E-03    9.9999943E-25
 -3.1200000E-03    1.0000006E-24
 -3.0850000E-03    1.0000006E-24
 -3.0499999E-03    9.9999943E-25
 -3.0149999E-03    1.0000000E-24
 -2.9800001E-03    1.0000013E-24
 -2.9450001E-03    1.0000001E-24
 -2.9100000E-03    9.9999864E-25
 -2.8750000E-03    9.9999992E-25
 -2.8400000E-03    1.0000013E-24
 -2.8049999E-03    9.9999992E-25
 -2.7699999E-03    9.9999893E-25
 -2.7350001E-03    9.9999982E-25
 -2.7000001E-03    1.0000006E-24
 -2.6650000E-03    1.0000006E-24
 -2.6300000E-03    1.0000004E-24
 -2.5950000E-03    1.0000000E-24
 -2.5599999E-03    9.9999992E-25
 -2.5249999E-03    1.0000001E-24
 -2.4900001E-03    1.0000000E-24
 -2.4550001E-03    9.9999953E-25
 -2.4200000E-03    9.9999963E-25
 -2.3850000E-03    1.0000001E-24
 -2.3500000E-03    1.0000006E-24
 -2.3149999E-03    1.0000007E-24
 -2.2799999E-03    9.9999982E-25
 -2.2450001E-03    9.9999933E-25
 -2.2100001E-03    9.9999992E-25
 -2.1750000E-03    1.0000001E-24
 -2.1400000E-03    1.0000000E-24
 -2.1050000E-03    1.0000006E-24
 -2.0699999E-03    1.0000011E-24
 -2.0349999E-03    1.0000001E-24
 -2.0000001E-03    9.9999913E-25
 -1.9650001E-03    9.9999943E-25
 -1.9300000E-03    1.0000002E-24
 -1.8950000E-03    1.0000002E-24
 -1.8600000E-03    1.0000001E-24
 -1.8250000E-03    1.0000003E-24
 -1.7900000E-03    1.0000005E-24
 -1.7550000E-03    9.9999963E-25
 -1.7199999E-03    9.9999923E-25
 -1.6850000E-03    1.0000009E-24
 -1.6500000E-03    1.0000014E-24
 -1.6150000E-03    9.9999913E-25
 -1.5800000E-03    9.9999903E-25
 -1.5450000E-03    1.0000017E-24
 -1.5100000E-03    1.0000003E-24
 -1.4750001E-03    9.9999775E-25
 -1.4400000E-03    1.0000001E-24
 -1.4050000E-03    1.0000015E-24
 -1.3700000E-03    9.9999834E-25
 -1.3350000E-03    9.9999834E-25
 -1.3000000E-03    1.0000021E-24
 -1.2650000E-03    1.0000019E-24
 -1.2300001E-03    9.9999913E-25
 -1.1950000E-03    9.9999992E-25
 -1.1600000E-03    1.0000009E-24
 -1.1250000E-03    9.9999913E-25
 -1.0900000E-03    9.9999943E-25
 -1.0550000E-03    1.0000006E-24
 -1.0200000E-03    1.0000003E-24
 -9.8500005E-04    1.0000004E-24
 -9.5000002E-04    1.0000013E-24
 -9.1499998E-04    1.0000005E-24
 -8.8000001E-04    9.9999933E-25
 -8.4499997E-04    9.9999953E-25
 -8.1000000E-04    9.9999972E-25
 -7.7500002E-04    9.9999963E-25
 -7.3999999E-04    1.0000002E-24
 -7.0500001E-04    1.0000003E-24
 -6.6999998E-04    1.0000001E-24
 -6.3500000E-04    1.0000002E-24
 -6.0000003E-04    1.0000004E-24
 -5.6499999E-04    9.9999903E-25
 -5.3000002E-04    9.9999884E-25
 -4.9499999E-04    1.0000014E-24
 -4.6000001E-04    1.0000021E-24
 -4.2500001E-04    1.0000002E-24
 -3.9000000E-04    1.0000000E-24
 -3.5500000E-04    1.0000008E-24
 -3.1999999E-04    9.9999903E-25
 -2.8499999E-04    9.9999913E-25
 -2.5000001E-04    1.0000005E-24
 -2.1499999E-04    9.9999864E-25
 -1.8000000E-04    1.0000001E-24
 -1.4500000E-04    1.0000065E-24
 -1.1000000E-04    9.9999884E-25
 -7.5000004E-05    9.9999045E-25
 -3.9999999E-05    1.0000153E-24
 -4.9999999E-06    1.0000074E-24
  2.9999999E-05    9.9997063E-25
  6.5000000E-05    1.0000047E-24
  9.9999997E-05    1.0000562E-24
  1.3499999E-04    9.9995811E-25
  1.7000000E-04    9.9992163E-25
  2.0500000E-04    1.0001984E-24
  2.3999999E-04    1.0000366E-24
  2.7500000E-04    9.9953893E-25
  3.1000000E-04    1.0001728E-24
  3.4500001E-04    1.0006657E-24
  3.8000001E-04    9.9949722E-25
  4.1499999E-04    9.9907508E-25
  4.4999999E-04    1.0013088E-24
  4.8500000E-04    1.0023705E-24
  5.2000000E-04    9.9661521E-25
  5.5499998E-04    9.9760987E-25
  5.9000001E-04    1.0073728E-24
  6.2499999E-04    1.0008574E-24
  6.6000002E-04    9.9317549E-25
  6.9500000E-04    1.0135551E-24
  7.3000003E-04    1.0131126E-24
  7.6500000E-04    9.8684083E-25
  7.9999998E-04    9.9585495E-25
  8.3500001E-04    1.0192636E-24
  8.6999999E-04    9.9224680E-25
  9.0500002E-04    9.5071012E-25
  9.4000000E-04    1.0167645E-24
  9.7499997E-04    1.0357597E-24
  1.0100000E-03    9.3054289E-25
  1.0450000E-03    9.8429183E-25
  1.0800000E-03    1.1258003E-24
  1.1150000E-03    9.8166167E-25
  1.1500000E-03    8.5196307E-25
  1.1849999E-03    1.1450285E-24
  1.2200000E-03    1.3734158E-24
  1.2550000E-03    3.6213754E-25
  1.2900000E-03    1.1375647E-25
  1.3250000E-03    2.6293324E-24
  1.3600000E-03    1.7991387E-24
  1.3950000E-03   -7.5206054E-25
  1.4299999E-03    4.3826474E-25
  1.4650000E-03    3.8952208E-24
  1.5000000E-03   -6.6343942E-25
  1.5350000E-03   -3.5183796E-24
  1.5700000E-03    2.9471147E-24
  1.6050000E-03    1.8606160E-24
  1.6400000E-03   -3.5937454E-24
  1.6749999E-03    1.9327222E-24
  1.7100000E-03    6.0950348E-24
  1.7450000E-03    3.4453468E-24
  1.7800000E-03   -6.6875021E-24
  1.8150000E-03    1.8185543E-24
  1.8500000E-03    1.1963108E-23
  1.8850000E-03   -5.7909960E-24
  1.9200000E-03   -1.7888787E-23
  1.9550000E-03    6.2392353E-23
  1.9900000E-03    2.9430943E-23
  2.0250001E-03   -1.5543788E-22
  2.0600001E-03    3.6101500E-23
  2.0949999E-03    2.6219046E-22
  2.1299999E-03    4.1843208E-23
  2.1650000E-03   -1.7108165E-22
  2.2000000E-03    2.4141941E-23
  2.2350000E-03    1.2065135E-22
  2.2700001E-03   -2.8181742E-22
  2.3050001E-03   -4.8026387E-22
  2.3399999E-03   -2.4168974E-23
  2.3749999E-03    2.9895208E-22
  2.4100000E-03   -3.4861159E-22
  2.4450000E-03   -3.3306462E-22
  2.4800000E-03   -1.8865520E-22
  2.5150001E-03   -5.7977096E-22
  2.5500001E-03   -1.1308817E-21
  2.5849999E-03   -8.8508237E-23
  2.6199999E-03    4.9087030E-22
  2.6550000E-03   -6.2684437E-22
  2.6900000E-03   -8.5503758E-22
  2.7250000E-03   -1.0165741E-22
  2.7600001E-03   -3.5956895E-21
  2.7950001E-03   -1.9207925E-21
  2.8299999E-03    2.7493107E-21
  2.8649999E-03    3.4765323E-21
  2.9000000E-03   -4.6647344E-21
  2.9350000E-03   -4.0403047E-21
  2.9700000E-03    1.0019848E-20
  3.0050001E-03    8.5142209E-21
  3.0400001E-03   -4.2313879E-21
  3.0749999E-03    9.7704773E-22
  3.1099999E-03    1.8300718E-20
  3.1450000E-03    4.9714250E-21
  3.1800000E-03   -2.3275064E-20
  3.2150000E-03   -2.6686212E-20
  3.2500001E-03    5.4349769E-21
  3.2850001E-03   -3.2539534E-20
  3.3199999E-03    1.4863599E-20
  3.3549999E-03    1.1733464E-19
  3.3900000E-03    1.5140533E-20
  3.4250000E-03   -1.4236812E-19
  3.4600000E-03    1.6350013E-21
  3.4950001E-03    1.0797950E-19
  3.5300001E-03    3.3815783E-20
  3.5649999E-03   -1.4190016E-19
  3.5999999E-03   -2.2063882E-19
  3.6350000E-03    1.3821605E-19
  3.6700000E-03    2.2365607E-19
  3.7050000E-03   -4.7157696E-20
  3.7400001E-03   -2.6863673E-19
  3.7750001E-03   -2.1049752E-19
  3.8099999E-03    3.2020960E-19
  3.8449999E-03    1.0220930E-19
  3.8800000E-03   -4.5895997E-19
  3.9149998E-03   -4.0683529E-19
  3.9499998E-03    1.9368510E-19
  3.9849998E-03    4.6164107E-19
  4.0199999E-03    3.7985369E-19
  4.0549999E-03   -1.2458215E-18
  4.0899999E-03   -1.0524590E-18
  4.1250000E-03    1.9110312E-18
  4.1600000E-03    1.5436674E-18
  4.1950000E-03   -1.4372615E-18
  4.2300001E-03   -3.1646803E-18
  4.2650001E-03    7.6908860E-19
  4.3000001E-03    5.2791676E-18
  4.3350002E-03    1.4923471E-20
  4.3700002E-03   -8.9812277E-18
  4.4049998E-03   -3.6176153E-18
  4.4399998E-03    1.0218686E-17
  4.4749998E-03    4.4791648E-18
  4.5099999E-03   -1.2989144E-17
  4.5449999E-03   -1.1469413E-17
  4.5799999E-03    1.4650502E-17
  4.6150000E-03    2.3367096E-17
  4.6500000E-03   -9.6329947E-18
  4.6850001E-03   -3.3887952E-17
  4.7200001E-03    9.1754503E-19
  4.7550001E-03    4.2533369E-17
  4.7900002E-03    1.7735275E-17
  4.8250002E-03   -4.3627474E-17
  4.8600002E-03   -4.3171086E-17
  4.8949998E-03    4.0564534E-17
  4.9299998E-03    6.6767068E-17
  4.9649999E-03   -3.7238010E-17
  4.9999999E-03   -1.0066112E-16
  5.0349999E-03    1.3654697E-17
  5.0700000E-03    1.2725099E-16
  5.1050000E-03    2.8928809E-17
  5.1400000E-03   -1.3702870E-16
  5.1750001E-03   -7.5504543E-17
  5.2100001E-03    1.6135848E-16
  5.2450001E-03    1.7072412E-16
  5.2800002E-03   -1.4481382E-16
  5.3150002E-03   -2.6898720E-16
  5.3500002E-03    9.4350689E-17
  5.3849998E-03    3.8635063E-16
  5.4199998E-03    1.2768353E-17
  5.4549999E-03   -4.7598964E-16
  5.4899999E-03   -1.5303849E-16
  5.5249999E-03    5.3093396E-16
  5.5600000E-03    3.4730370E-16
  5.5950000E-03   -5.1499307E-16
  5.6300000E-03   -5.6581356E-16
  5.6650001E-03    4.6418602E-16
  5.7000001E-03    8.7766436E-16
  5.7350001E-03   -2.7245940E-16
  5.7700002E-03   -1.2288065E-15
  5.8050002E-03   -1.0991482E-16
  5.8400002E-03    1.5079641E-15
  5.8749998E-03    6.7564128E-16
  5.9099998E-03   -1.6904158E-15
  5.9449999E-03   -1.4896277E-15
  5.9799999E-03    1.5592600E-15
  6.0149999E-03    2.4220388E-15
  6.0500000E-03   -1.1419261E-15
  6.0850000E-03   -3.4901624E-15
  6.1200000E-03    2.5920656E-16
  6.1550001E-03    4.5549002E-15
  6.1900001E-03    1.2363728E-15
  6.2250001E-03   -5.3052160E-15
  6.2600002E-03   -3.3094132E-15
  6.2950002E-03    5.5670347E-15
  6.3299998E-03    6.0426742E-15
  6.3649998E-03   -4.8724372E-15
  6.3999998E-03   -9.0456978E-15
  6.4349999E-03    2.9518560E-15
  6.4699999E-03    1.1954755E-14
  6.5049999E-03    4.2468464E-16
  6.5400000E-03   -1.4164378E-14
  6.5750000E-03   -5.4172890E-15
  6.6100000E-03    1.4806126E-14
  6.6450001E-03    1.1677283E-14
  6.6800001E-03   -1.3086889E-14
  6.7150001E-03   -1.8607047E-14
  6.7500002E-03    8.2148948E-15
  6.7850002E-03    2.5179754E-14
  6.8199998E-03    3.2370897E-16
  6.8549998E-03   -2.9973348E-14
  6.8899998E-03   -1.2657525E-14
  6.9249999E-03    3.1182542E-14
  6.9599999E-03    2.8043416E-14
  6.9949999E-03   -2.7164384E-14
  7.0300000E-03   -4.5166897E-14
  7.0650000E-03    1.6210354E-14
  7.1000000E-03    6.1581579E-14
  7.1350001E-03    2.5072211E-15
  7.1700001E-03   -7.4300490E-14
  7.2050001E-03   -2.8918982E-14
  7.2400002E-03    7.9702893E-14
  7.2750002E-03    6.1311836E-14
  7.3099998E-03   -7.4342489E-14
  7.3449998E-03   -9.6713985E-14
  7.3799998E-03    5.4907552E-14
  7.4149999E-03    1.3002585E-13
  7.4499999E-03   -1.9807727E-14
  7.4850000E-03   -1.5504447E-13
  7.5200000E-03   -3.0834008E-14
  7.5550000E-03    1.6451415E-13
  7.5900001E-03    9.4043669E-14
  7.6250001E-03   -1.5113341E-13
  7.6600001E-03   -1.6332190E-13
  7.6950002E-03    1.0884884E-13
  7.7300002E-03    2.2872137E-13
  7.7650002E-03   -3.4990135E-14
  7.7999998E-03   -2.7828827E-13
  7.8349998E-03   -6.9121568E-14
  7.8699999E-03    2.9793147E-13
  7.9049999E-03    1.9524988E-13
  7.9399999E-03   -2.7560197E-13
  7.9750000E-03   -3.2960597E-13
  8.0100000E-03    2.0252165E-13
  8.0450000E-03    4.5245800E-13
  8.0800001E-03   -7.6792854E-14
  8.1150001E-03   -5.4026136E-13
  8.1500001E-03   -9.3482256E-14
  8.1850002E-03    5.7026806E-13
  8.2200002E-03    2.9100366E-13
  8.2550002E-03   -5.2354979E-13
  8.2900003E-03   -4.8849466E-13
  8.3250003E-03    3.9074215E-13
  8.3600003E-03    6.5317077E-13
  8.3950004E-03   -1.7489439E-13
  8.4300004E-03   -7.5153837E-13
  8.4650004E-03   -1.0603432E-13
  8.5000005E-03    7.5757532E-13
  8.5349996E-03    4.2426251E-13
  8.5699996E-03   -6.5669323E-13
  8.6049996E-03   -7.4689468E-13
  8.6399997E-03    4.4722028E-13
  8.6749997E-03    1.0404479E-12
  8.7099997E-03   -1.4139858E-13
  8.7449998E-03   -1.2773468E-12
  8.7799998E-03   -2.3789542E-13
  8.8149998E-03    1.4407193E-12
  8.8499999E-03    6.6378337E-13
  8.8849999E-03   -1.5258513E-12
  8.9199999E-03   -1.1156929E-12
  8.9550000E-03    1.5309606E-12
  8.9900000E-03    1.5824358E-12
  9.0250000E-03   -1.4435708E-12
  9.0600001E-03   -2.0524658E-12
  9.0950001E-03    1.2338104E-12
  9.1300001E-03    2.4973693E-12
  9.1650002E-03   -8.5716216E-13
  9.2000002E-03   -2.8504098E-12
  9.2350002E-03    2.7704014E-13
  9.2700003E-03    3.0010302E-12
  9.3050003E-03    5.0930045E-13
  9.3400003E-03   -2.7975554E-12
  9.3750004E-03   -1.4341947E-12
  9.4100004E-03    2.0755086E-12
  9.4450004E-03    2.3310086E-12
  9.4799995E-03   -7.0734320E-13
  9.5149996E-03   -2.9235581E-12
  9.5499996E-03   -1.3207870E-12
  9.5849996E-03    2.8631019E-12
  9.6199997E-03    3.8391334E-12
  9.6549997E-03   -1.8175101E-12
  9.6899997E-03   -6.4614798E-12
  9.7249998E-03   -4.0279200E-13
  9.7599998E-03    8.6313760E-12
  9.7949998E-03    3.7243967E-12
  9.8299999E-03   -9.7290353E-12
  9.8649999E-03   -7.7359586E-12
  9.8999999E-03    9.2405241E-12
  9.9350000E-03    1.1698991E-11
  9.9700000E-03   -6.9370278E-12
  1.0005000E-02   -1.4671413E-11
  1.0040000E-02    3.0117517E-12
  1.0075000E-02    1.5741453E-11
  1.0110000E-02    1.8833583E-12
  1.0145000E-02   -1.4146572E-11
  1.0180000E-02   -6.6402183E-12
  1.0215000E-02    9.5839552E-12
  1.0250000E-02    9.8516872E-12
  1.0285000E-02   -2.5321299E-12
  1.0320000E-02   -1.0328736E-11
  1.0355000E-02   -5.9454182E-12
  1.0390000E-02    7.4305432E-12
  1.0425000E-02    1.4536466E-11
  1.0460000E-02   -8.9445194E-13
  1.0495000E-02   -2.1604435E-11
  1.0530000E-02   -8.9252078E-12
  1.0565000E-02    2.5356824E-11
  1.0600000E-02    2.0514694E-11
  1.0635000E-02   -2.4555389E-11
  1.0670000E-02   -3.1521147E-11
  1.0705000E-02    1.8996728E-11
  1.0740000E-02    3.9104754E-11
  1.0775000E-02   -9.5508211E-12
  1.0810000E-02   -4.1211416E-11
  1.0845000E-02   -1.5771639E-12
  1.0880000E-02    3.7701890E-11
  1.0915000E-02    1.2611593E-11
  1.0950000E-02   -2.7931343E-11
  1.0985000E-02   -1.9828675E-11
  1.1020000E-02    1.3243756E-11
  1.1055000E-02    2.0865807E-11
  1.1090000E-02    3.0507630E-12
  1.1125000E-02   -1.6206959E-11
  1.1160000E-02   -2.0315853E-11
  1.1195000E-02    3.7056447E-12
  1.1230000E-02    3.4208580E-11
  1.1265000E-02    1.2248459E-11
  1.1300000E-02   -4.2612271E-11
  1.1335000E-02   -2.7674810E-11
  1.1370000E-02    4.7701770E-11
  1.1405000E-02    4.2941602E-11
  1.1440000E-02   -4.9789190E-11
  1.1475000E-02   -5.9029115E-11
  1.1510000E-02    5.1612034E-11
  1.1545000E-02    6.8369976E-11
  1.1580000E-02   -5.7308502E-11
  1.1615000E-02   -7.2843218E-11
  1.1650000E-02    6.5958586E-11
  1.1685000E-02    7.7414693E-11
  1.1720000E-02   -7.3511530E-11
  1.1755000E-02   -8.4950415E-11
  1.1790000E-02    6.9918848E-11
  1.1825000E-02    8.6620794E-11
  1.1860000E-02   -6.4321083E-11
  1.1895000E-02   -8.5211997E-11
  1.1930000E-02    5.1547416E-11
  1.1965000E-02    7.3524700E-11
  1.2000000E-02   -4.0664014E-11
  1.2035000E-02   -4.4656098E-11
  1.2070000E-02    4.0012476E-11
  1.2105000E-02    9.1394227E-12
  1.2140000E-02   -6.8898769E-11
  1.2175000E-02    1.0719052E-11
  1.2210000E-02    1.1864715E-10
  1.2245000E-02   -2.6510847E-11
  1.2280000E-02   -1.7522975E-10
  1.2315000E-02    5.8507553E-11
  1.2350000E-02    2.0841769E-10
  1.2385000E-02   -9.3001891E-11
  1.2420000E-02   -2.0311937E-10
  1.2455000E-02    8.4674455E-11
  1.2490000E-02    1.9482885E-10
  1.2525000E-02   -9.3064230E-11
  1.2560000E-02   -2.4558933E-10
  1.2595000E-02    8.5900731E-11
  1.2630000E-02    3.0033848E-10
  1.2665000E-02   -1.4861241E-10
  1.2700000E-02   -2.9895414E-10
  1.2735000E-02    2.0874526E-10
  1.2770000E-02    2.7747338E-10
  1.2805000E-02   -2.6577249E-10
  1.2840000E-02   -2.5991040E-10
  1.2875000E-02    2.8194744E-10
  1.2910000E-02    1.8151852E-10
  1.2945000E-02   -1.8438784E-10
  1.2980000E-02    5.8596836E-11
  1.3015000E-02    3.2701558E-10
  1.3050000E-02   -1.0038082E-10
  1.3085000E-02   -3.0693770E-10
  1.3120000E-02    4.2763092E-11
  1.3155000E-02    1.7443764E-10
  1.3190000E-02   -8.1867464E-11
  1.3225000E-02   -9.0151900E-11
  1.3260000E-02   -2.9436311E-11
  1.3295000E-02   -5.6776320E-11
  1.3330000E-02   -2.0523087E-11
  1.3365000E-02    1.4420316E-11
  1.3400000E-02    8.3822560E-11
  1.3435000E-02   -5.3648843E-12
  1.3470000E-02   -3.1678601E-10
  1.3505000E-02   -9.2246141E-11
  1.3540000E-02    5.0730170E-10
  1.3575000E-02    1.0812081E-10
  1.3610000E-02   -5.9230693E-10
  1.3645000E-02   -7.7340495E-12
  1.3680000E-02    5.9155414E-10
  1.3715000E-02   -3.8954069E-11
  1.3750000E-02   -4.2377987E-10
  1.3785000E-02    5.7893662E-11
  1.3820000E-02    3.0662164E-10
  1.3855000E-02   -8.5072532E-11
  1.3890000E-02   -7.9872567E-12
  1.3925000E-02    5.1651788E-10
  1.3960000E-02   -4.1197493E-10
  1.3995000E-02   -8.9035290E-10
  1.4030000E-02    2.1985294E-10
  1.4065000E-02    2.6651867E-10
  1.4100000E-02   -1.3038155E-09
  1.4135000E-02   -1.1859940E-09
  1.4170000E-02    8.9809943E-10
  1.4205000E-02    1.4286360E-09
  1.4240000E-02    6.8589717E-10
  1.4275000E-02   -1.1120335E-10
  1.4310000E-02   -5.9244043E-10
  1.4345000E-02   -2.2988547E-10
  1.4380000E-02    6.1863376E-10
  1.4415000E-02    3.2805780E-10
  1.4450000E-02    4.8276277E-10
  1.4485000E-02    4.7018089E-10
  1.4520000E-02   -1.0276237E-09
  1.4555000E-02   -1.6501737E-09
  1.4590000E-02   -3.8761871E-10
  1.4625000E-02    1.4688689E-10
  1.4660000E-02   -3.8381884E-10
  1.4695000E-02    5.0311671E-10
  1.4730000E-02    2.1126814E-09
  1.4765000E-02    1.3400368E-10
  1.4800000E-02   -2.9343135E-09
  1.4835000E-02   -1.5182500E-09
  1.4870000E-02    1.4792897E-09
  1.4905000E-02    8.3617546E-10
  1.4940000E-02   -1.7098581E-10
  1.4975000E-02    1.0245617E-09
  1.5010000E-02    7.5838436E-10
  1.5045000E-02   -9.0385976E-10
  1.5080000E-02   -9.8465014E-10
  1.5115000E-02   -2.1941825E-10
  1.5150000E-02    5.7560740E-10
  1.5185000E-02    1.0109987E-09
  1.5220000E-02    5.8095945E-10
  1.5255000E-02   -2.0387239E-10
  1.5290000E-02   -6.6173128E-10
  1.5325000E-02   -1.1231016E-09
  1.5360000E-02   -7.1764733E-10
  1.5395000E-02    5.0473120E-10
  1.5430000E-02    1.1114236E-09
  1.5465000E-02    3.0113756E-10
  1.5500000E-02   -5.9543670E-10
  1.5535000E-02    1.6698851E-10
  1.5570000E-02    9.7803798E-10
  1.5605000E-02   -2.0704698E-10
  1.5640000E-02   -1.0016764E-09
  1.5675001E-02    6.5534744E-10
  1.5710000E-02    6.0441346E-10
  1.5745001E-02   -2.0367159E-09
  1.5780000E-02   -1.4043486E-09
  1.5814999E-02    1.8406353E-09
  1.5850000E-02    1.1957950E-09
  1.5884999E-02   -9.6020725E-10
  1.5920000E-02    7.2541206E-10
  1.5954999E-02    2.4112978E-09
  1.5990000E-02    1.4650596E-10
  1.6024999E-02   -1.7721046E-09
  1.6060000E-02   -8.6247912E-11
  1.6094999E-02    1.2816740E-09
  1.6130000E-02   -2.7061794E-10
  1.6164999E-02   -2.2210838E-09
  1.6200000E-02   -9.8576591E-11
  1.6235000E-02    2.9658722E-09
  1.6270000E-02    9.5879205E-10
  1.6305000E-02   -2.0033946E-09
  1.6340001E-02   -2.0972289E-10
  1.6375000E-02    1.4860391E-09
  1.6410001E-02   -1.4499640E-10
  1.6445000E-02    3.0734487E-10
  1.6480001E-02    1.4520365E-09
  1.6515000E-02   -4.9744275E-10
  1.6550001E-02   -1.4283388E-09
  1.6585000E-02   -3.0882982E-10
  1.6620001E-02    3.2827666E-10
  1.6655000E-02    2.4009572E-09
  1.6690001E-02    1.9623270E-09
  1.6725000E-02   -2.6854772E-09
  1.6759999E-02   -1.4159484E-09
  1.6795000E-02    2.8134801E-09
  1.6829999E-02   -2.4970875E-10
  1.6865000E-02   -1.6897088E-09
  1.6899999E-02    2.1211928E-09
  1.6935000E-02    6.4167222E-10
  1.6969999E-02   -2.2449766E-09
  1.7005000E-02   -2.8499325E-10
  1.7039999E-02    6.2299521E-10
  1.7075000E-02    5.5264349E-10
  1.7109999E-02    1.7957067E-09
  1.7145000E-02   -5.8623206E-10
  1.7180000E-02   -1.8422333E-09
  1.7215000E-02    5.3448168E-10
  1.7250000E-02   -1.4866902E-09
  1.7285001E-02   -1.3572965E-09
  1.7320000E-02    3.1026846E-09
  1.7355001E-02    3.9555717E-10
  1.7390000E-02   -2.9375853E-09
  1.7425001E-02    2.5728493E-09
  1.7460000E-02    3.7530161E-09
  1.7495001E-02   -2.5203994E-09
  1.7530000E-02   -3.5902357E-09
  1.7565001E-02   -4.3011175E-10
  1.7600000E-02    6.2231925E-10
  1.7635001E-02    4.1382583E-10
  1.7670000E-02   -1.0584059E-09
  1.7704999E-02   -1.1470600E-09
  1.7740000E-02    1.3817504E-09
  1.7774999E-02    1.2626312E-09
  1.7810000E-02   -3.1373601E-10
  1.7844999E-02    3.9838394E-10
  1.7880000E-02   -7.4470341E-10
  1.7914999E-02   -2.0958817E-09
  1.7950000E-02    1.3445692E-09
  1.7984999E-02    2.8305256E-09
  1.8020000E-02   -1.0279878E-09
  1.8054999E-02   -1.6037183E-09
  1.8090000E-02    1.5123877E-09
  1.8124999E-02    8.0939790E-11
  1.8160000E-02   -4.1172585E-09
  1.8195000E-02   -3.6193766E-09
  1.8230001E-02    5.2799354E-10
  1.8265000E-02    2.5982412E-09
  1.8300001E-02    8.7901969E-10
  1.8335000E-02   -1.1206294E-09
  1.8370001E-02   -5.4111438E-10
  1.8405000E-02    5.8989841E-10
  1.8440001E-02    1.9072248E-10
  1.8475000E-02    9.8788347E-12
  1.8510001E-02    2.9346872E-10
  1.8545000E-02   -1.2219543E-10
  1.8580001E-02    8.5787238E-10
  1.8615000E-02    2.3196702E-09
  1.8650001E-02   -6.0441352E-10
  1.8685000E-02   -4.3082715E-09
  1.8719999E-02   -1.4392781E-09
  1.8755000E-02    2.8593601E-09
  1.8789999E-02    1.2564786E-09
  1.8825000E-02   -1.1899834E-09
  1.8859999E-02    6.1753086E-10
  1.8895000E-02    1.8496750E-09
  1.8929999E-02   -4.7499393E-10
  1.8965000E-02   -2.0837805E-09
  1.8999999E-02   -1.8355586E-11
  1.9035000E-02    2.9438831E-09
  1.9069999E-02    2.5880562E-09
  1.9105000E-02    7.4097603E-12
  1.9140000E-02   -5.6538513E-10
  1.9175000E-02    1.0611877E-10
  1.9210000E-02   -1.4357472E-09
  1.9245001E-02   -2.4134237E-09
  1.9280000E-02    1.7236530E-10
  1.9315001E-02    1.6269442E-09
  1.9350000E-02   -5.3820515E-10
  1.9385001E-02   -4.8437832E-10
  1.9420000E-02    2.9092482E-09
  1.9455001E-02    2.5111433E-09
  1.9490000E-02   -1.5069896E-09
  1.9525001E-02   -1.1175363E-09
  1.9560000E-02    1.8867974E-09
  1.9595001E-02    1.0445135E-09
  1.9630000E-02    5.1570381E-10
  1.9664999E-02    2.7418328E-09
  1.9700000E-02    5.1954702E-10
  1.9734999E-02   -3.0924001E-09
  1.9770000E-02    9.6192454E-10
  1.9804999E-02    4.3972732E-09
  1.9840000E-02   -7.1177397E-10
  1.9874999E-02   -2.5560825E-09
  1.9910000E-02    2.4000451E-09
  1.9944999E-02    1.7166466E-09
  1.9980000E-02   -2.1437501E-09
  2.0014999E-02    5.5881905E-10
  2.0050000E-02    2.9845364E-09
  2.0085000E-02    6.3143379E-11
  2.0120000E-02   -1.7629795E-09
  2.0155000E-02   -2.0614648E-09
  2.0190001E-02   -1.2125083E-09
  2.0225000E-02    2.8889464E-09
  2.0260001E-02    2.5931806E-09
  2.0295000E-02   -2.6797742E-09
  2.0330001E-02   -9.1217217E-10
  2.0365000E-02    2.9526186E-09
  2.0400001E-02   -8.1963925E-10
  2.0435000E-02   -1.6728864E-09
  2.0470001E-02    2.1050808E-09
  2.0505000E-02   -1.1544936E-09
  2.0540001E-02   -3.4475962E-09
  2.0575000E-02    2.1397801E-09
  2.0609999E-02    1.6176891E-09
  2.0645000E-02   -4.1516106E-09
  2.0679999E-02   -1.7068308E-09
  2.0715000E-02    2.7515212E-09
  2.0749999E-02    1.2995939E-09
  2.0785000E-02    1.2595855E-10
  2.0819999E-02    3.8179579E-10
  2.0855000E-02   -7.2735390E-10
  2.0889999E-02   -7.6487633E-10
  2.0925000E-02   -3.0945035E-10
  2.0959999E-02   -1.1051270E-09
  2.0995000E-02   -3.5182318E-10
  2.1029999E-02    1.6166518E-09
  2.1065000E-02    1.2983048E-09
  2.1100000E-02   -8.4656249E-10
  2.1135001E-02   -1.8768120E-09
  2.1170000E-02   -6.9719275E-10
  2.1205001E-02    4.3542889E-10
  2.1240000E-02   -1.1679882E-10
  2.1275001E-02    2.5983796E-10
  2.1310000E-02    2.0252644E-09
  2.1345001E-02    1.5380388E-09
  2.1380000E-02   -4.4131143E-10
  2.1415001E-02   -1.0558678E-09
  2.1450000E-02   -1.4532119E-09
  2.1485001E-02   -1.2555191E-09
  2.1520000E-02    4.9814314E-10
  2.1555001E-02    3.7150782E-10
  2.1590000E-02   -1.0293099E-09
  2.1624999E-02   -9.1630536E-11
  2.1660000E-02   -7.3565215E-10
  2.1694999E-02   -3.7606815E-09
  2.1730000E-02   -1.1454083E-09
  2.1764999E-02    3.8689851E-09
  2.1800000E-02    1.4202006E-09
  2.1834999E-02   -1.8806761E-09
  2.1870000E-02    1.6302365E-09
  2.1904999E-02    2.8771505E-09
  2.1940000E-02   -1.4375424E-09
  2.1974999E-02   -2.0622546E-09
  2.2010000E-02    7.4382450E-10
  2.2045000E-02    2.5306190E-10
  2.2080000E-02   -1.6177428E-09
  2.2115000E-02   -1.3934547E-09
  2.2150001E-02   -4.5018123E-10
  2.2185000E-02    5.0325388E-10
  2.2220001E-02    1.7711782E-09
  2.2255000E-02    2.1687137E-09
  2.2290001E-02    6.7651218E-10
  2.2325000E-02   -1.2610984E-09
  2.2360001E-02   -1.2828255E-09
  2.2395000E-02   -3.7632811E-10
  2.2430001E-02   -9.9765668E-11
  2.2465000E-02    1.0439540E-09
  2.2500001E-02    1.6611768E-09
  2.2535000E-02   -7.2393480E-10
  2.2569999E-02   -2.0828912E-09
  2.2605000E-02   -7.8920159E-10
  2.2639999E-02   -3.8717998E-10
  2.2675000E-02    9.0884117E-10
  2.2709999E-02    2.8041147E-09
  2.2745000E-02   -1.5107243E-10
  2.2779999E-02   -2.6025850E-09
  2.2815000E-02    1.1197373E-09
  2.2849999E-02    1.4490208E-09
  2.2885000E-02   -3.8395047E-09
  2.2919999E-02   -2.4907540E-09
  2.2955000E-02    3.9507184E-09
  2.2990000E-02    3.0732137E-09
  2.3025000E-02   -2.2800266E-09
  2.3060000E-02   -1.9509985E-09
  2.3095001E-02    1.7334317E-09
  2.3130000E-02    9.4863739E-10
  2.3165001E-02   -2.7028584E-09
  2.3200000E-02   -2.0148632E-09
  2.3235001E-02    2.5935953E-09
  2.3270000E-02    3.7861567E-09
  2.3305001E-02    2.9339298E-10
  2.3340000E-02   -2.1537216E-09
  2.3375001E-02   -1.6423669E-09
  2.3410000E-02   -1.4906351E-09
  2.3445001E-02   -2.0805806E-09
  2.3480000E-02   -4.4229062E-10
  2.3514999E-02    1.9168540E-09
  2.3550000E-02    1.1063011E-09
  2.3584999E-02   -8.9811480E-10
  2.3620000E-02   -1.2366004E-09
  2.3654999E-02   -1.7416941E-09
  2.3690000E-02   -1.5755328E-09
  2.3724999E-02    1.1612697E-09
  2.3760000E-02    2.0129800E-09
  2.3794999E-02   -3.8346196E-10
  2.3830000E-02   -6.3694505E-10
  2.3864999E-02    8.9638258E-10
  2.3900000E-02    7.9187717E-10
  2.3934999E-02    8.5138580E-10
  2.3970000E-02    4.2302958E-10
  2.4005000E-02   -1.9940682E-09
  2.4040001E-02   -1.3951794E-09
  2.4075000E-02    1.6964181E-09
  2.4110001E-02    2.7951236E-10
  2.4145000E-02   -1.6483858E-09
  2.4180001E-02    1.5239681E-09
  2.4215000E-02    1.8551023E-09
  2.4250001E-02   -2.6001918E-09
  2.4285000E-02   -1.7312728E-09
  2.4320001E-02    1.5325796E-09
  2.4355000E-02   -1.6046648E-09
  2.4390001E-02   -3.2069938E-09
  2.4425000E-02    1.3177784E-09
  2.4460001E-02    1.0880162E-09
  2.4495000E-02   -2.4420623E-09
  2.4529999E-02    1.1023316E-09
  2.4565000E-02    4.5844208E-09
  2.4599999E-02    2.2047411E-10
  2.4635000E-02   -2.7754758E-09
  2.4669999E-02    9.3713877E-11
  2.4705000E-02    1.6954709E-09
  2.4739999E-02    2.9039138E-10
  2.4775000E-02   -6.0217442E-10
  2.4809999E-02   -5.3696997E-10
  2.4845000E-02   -7.5829981E-10
  2.4879999E-02   -1.2443154E-09
  2.4915000E-02   -3.7845088E-10
  2.4950000E-02    1.1518612E-09
  2.4985000E-02    7.8537166E-10
  2.5020000E-02    2.6592609E-10
  2.5055001E-02    6.7501649E-10
  2.5090000E-02   -1.2742138E-09
  2.5125001E-02   -3.2196734E-09
  2.5160000E-02   -4.5158777E-10
  2.5195001E-02    2.4765483E-09
  2.5230000E-02    9.2081337E-10
  2.5265001E-02   -1.1428544E-09
  2.5300000E-02   -5.1091475E-10
  2.5335001E-02    7.2708539E-10
  2.5370000E-02    4.9877669E-10
  2.5405001E-02    1.3424929E-10
  2.5440000E-02    1.3514582E-09
  2.5474999E-02    1.5774010E-09
  2.5510000E-02   -5.5387933E-10
  2.5544999E-02   -8.2179402E-10
  2.5580000E-02    6.8844092E-10
  2.5614999E-02    3.9988665E-10
  2.5650000E-02    6.2510508E-10
  2.5684999E-02    1.7460217E-09
  2.5720000E-02   -3.3224253E-11
  2.5754999E-02   -1.9827342E-09
  2.5790000E-02   -1.0241700E-09
  2.5824999E-02    3.3800776E-10
  2.5860000E-02    1.4288722E-09
  2.5895000E-02    9.7727182E-10
  2.5930000E-02   -1.2681594E-09
  2.5965000E-02    7.5548429E-10
  2.6000001E-02    3.6215202E-09
  2.6035000E-02   -1.8291515E-09
  2.6070001E-02   -5.7961271E-09
  2.6105000E-02    8.7484592E-10
  2.6140001E-02    4.4181103E-09
  2.6175000E-02   -8.8130087E-10
  2.6210001E-02   -2.3242015E-09
  2.6245000E-02    1.4071001E-09
  2.6280001E-02    1.9278634E-09
  2.6315000E-02   -8.5113966E-10
  2.6350001E-02   -2.7466440E-09
  2.6385000E-02   -7.5641898E-10
  2.6419999E-02    2.6219908E-09
  2.6455000E-02    1.1952037E-09
  2.6489999E-02   -8.7816721E-10
  2.6525000E-02    1.2099202E-09
  2.6559999E-02   -2.4792826E-10
  2.6595000E-02   -3.6285723E-09
  2.6629999E-02    5.9968829E-11
  2.6665000E-02    1.4057526E-09
  2.6699999E-02   -4.0633545E-09
  2.6735000E-02   -1.7824150E-09
  2.6769999E-02    4.3226991E-09
  2.6805000E-02    4.1672457E-11
  2.6839999E-02   -4.0991979E-09
  2.6875000E-02    5.1260537E-11
  2.6910000E-02    1.4332906E-09
  2.6945001E-02   -3.5880188E-10
  2.6980000E-02    4.8224419E-10