 -4.8000002E-03    1.0000000E-24
 -4.7650002E-03    1.0000000E-24
 -4.7300002E-03    1.0000002E-24
 -4.6950001E-03    1.0000002E-24
 -4.6600001E-03    1.0000002E-24
 -4.6250001E-03    1.0000000E-24
 -4.5900000E-03    1.0000000E-24
 -4.5550000E-03    1.0000002E-24
 -4.5200000E-03    1.0000002E-24
 -4.4849999E-03    1.0000002E-24
 -4.4499999E-03    1.0000001E-24
 -4.4149999E-03    9.9999982E-25
 -4.3799998E-03    9.9999982E-25
 -4.3449998E-03    1.0000005E-24
 -4.3100002E-03    1.0000006E-24
 -4.2750002E-03    9.9999992E-25
 -4.2400002E-03    9.9999963E-25
 -4.2050001E-03    1.0000001E-24
 -4.1700001E-03    1.0000002E-24
 -4.1350001E-03    9.9999992E-25
 -4.1000000E-03    1.0000000E-24
 -4.0650000E-03    1.0000002E-24
 -4.0300000E-03    1.0000002E-24
 -3.9949999E-03    1.0000003E-24
 -3.9599999E-03    9.9999992E-25
 -3.9249999E-03    9.9999963E-25
 -3.8900001E-03    1.0000001E-24
 -3.8550000E-03    1.0000004E-24
 -3.8200000E-03    9.9999992E-25
 -3.7849999E-03    9.9999992E-25
 -3.7499999E-03    1.0000002E-24
 -3.7150001E-03    1.0000003E-24
 -3.6800001E-03    1.0000003E-24
 -3.6450000E-03    1.0000004E-24
 -3.6100000E-03    9.9999972E-25
 -3.5750000E-03    9.9999943E-25
 -3.5399999E-03    1.0000002E-24
 -3.5049999E-03    1.0000006E-24
 -3.4700001E-03    1.0000002E-24
 -3.4350001E-03    1.0000002E-24
 -3.4000000E-03    1.0000002E-24
 -3.3650000E-03    9.9999953E-25
 -3.3300000E-03    9.9999943E-25
 -3.2949999E-03    1.0000001E-24
 -3.2599999E-03    1.0000005E-24
 -3.2250001E-03    1.0000002E-24
 -3.1900001E-03    1.0000000E-24
 -3.1550000E-03    1.0000000E-24
 -3.1200000E-03    9.9999972E-25
 -3.0850000E-03    9.9999992E-25
 -3.0499999E-03    1.0000002E-24
 -3.0149999E-03    1.0000000E-24
 -2.9800001E-03    9.9999992E-25
 -2.9450001E-03    1.0000002E-24
 -2.9100000E-03    1.0000002E-24
 -2.8750000E-03    1.0000000E-24
 -2.8400000E-03    1.0000002E-24
 -2.8049999E-03    1.0000001E-24
 -2.7699999E-03    9.9999963E-25
 -2.7350001E-03    9.9999992E-25
 -2.7000001E-03    1.0000006E-24
 -2.6650000E-03    1.0000005E-24
 -2.6300000E-03    1.0000002E-24
 -2.5950000E-03    1.0000003E-24
 -2.5599999E-03    9.9999992E-25
 -2.5249999E-03    1.0000000E-24
 -2.4900001E-03    1.0000005E-24
 -2.4550001E-03    1.0000001E-24
 -2.4200000E-03    9.9999933E-25
 -2.3850000E-03    9.9999972E-25
 -2.3500000E-03    1.0000002E-24
 -2.3149999E-03    1.0000000E-24
 -2.2799999E-03    1.0000007E-24
 -2.2450001E-03    1.0000013E-24
 -2.2100001E-03    9.9999972E-25
 -2.1750000E-03    9.9999893E-25
 -2.1400000E-03    1.0000001E-24
 -2.1050000E-03    1.0000004E-24
 -2.0699999E-03    9.9999933E-25
 -2.0349999E-03    9.9999972E-25
 -2.0000001E-03    1.0000008E-24
 -1.9650001E-03    1.0000007E-24
 -1.9300000E-03    1.0000004E-24
 -1.8950000E-03    1.0000003E-24
 -1.8600000E-03    1.0000003E-24
 -1.8250000E-03    1.0000001E-24
 -1.7900000E-03    9.9999913E-25
 -1.7550000E-03    9.9999844E-25
 -1.7199999E-03    9.9999972E-25
 -1.6850000E-03    1.0000013E-24
 -1.6500000E-03    1.0000009E-24
 -1.6150000E-03    9.9999992E-25
 -1.5800000E-03    9.9999982E-25
 -1.5450000E-03    1.0000001E-24
 -1.5100000E-03    1.0000004E-24
 -1.4750001E-03    1.0000006E-24
 -1.4400000E-03    1.0000005E-24
 -1.4050000E-03    9.9999963E-25
 -1.3700000E-03    9.9999765E-25
 -1.3350000E-03    9.9999943E-25
 -1.3000000E-03    1.0000048E-24
 -1.2650000E-03    9.9999923E-25
 -1.2300001E-03    9.9999420E-25
 -1.1950000E-03    1.0000163E-24
 -1.1600000E-03    9.9999627E-25
 -1.1250000E-03    9.9992606E-25
 -1.0900000E-03    1.0000726E-24
 -1.0550000E-03    1.0002381E-24
 -1.0200000E-03    9.9962906E-25
 -9.8500005E-04    9.9936696E-25
 -9.5000002E-04    1.0013825E-24
 -9.1499998E-04    1.0014716E-24
 -8.8000001E-04    9.9569757E-25
 -8.4499997E-04    9.9688501E-25
 -8.1000000E-04    1.0118537E-24
 -7.7500002E-04    1.0064676E-24
 -7.3999999E-04    9.7003326E-25
 -7.0500001E-04    9.8537099E-25
 -6.6999998E-04    1.0717312E-24
 -6.3500000E-04    1.0382953E-24
 -6.0000003E-04    8.3259545E-25
 -5.6499999E-04    8.8989841E-25
 -5.3000002E-04    1.3896519E-24
 -4.9499999E-04    1.3175224E-24
 -4.6000001E-04    8.7334976E-26
 -4.2500001E-04    1.2894976E-25
 -3.9000000E-04    3.1372771E-24
 -3.5500000E-04    3.2391102E-24
 -3.1999999E-04   -3.9280268E-24
 -2.8499999E-04   -4.4184655E-24
 -2.5000001E-04    1.2014974E-23
 -2.1499999E-04    1.3503341E-23
 -1.8000000E-04   -2.2604039E-23
 -1.4500000E-04   -2.6930651E-23
 -1.1000000E-04    4.9206291E-23
 -7.5000004E-05    6.2200723E-23
 -3.9999999E-05   -9.2618518E-23
 -4.9999999E-06   -1.3159643E-22
  2.9999999E-05    1.7378145E-22
  6.5000000E-05    2.8551494E-22
  9.9999997E-05   -3.0163575E-22
  1.3499999E-04   -6.0149768E-22
  1.7000000E-04    5.0142852E-22
  2.0500000E-04    1.2528439E-21
  2.3999999E-04   -7.6890709E-22
  2.7500000E-04   -2.5366721E-21
  3.1000000E-04    1.0634334E-21
  3.4500001E-04    4.9989408E-21
  3.8000001E-04   -1.1814784E-21
  4.1499999E-04   -9.5374797E-21
  4.4999999E-04    5.8218046E-22
  4.8500000E-04    1.7612835E-20
  5.2000000E-04    2.0581278E-21
  5.5499998E-04   -3.1415887E-20
  5.9000001E-04   -9.5824972E-21
  6.2499999E-04    5.4034973E-20
  6.6000002E-04    2.7721488E-20
  6.9500000E-04   -8.9277978E-20
  7.3000003E-04   -6.7240000E-20
  7.6500000E-04    1.4081660E-19
  7.9999998E-04    1.4729194E-19
  8.3500001E-04   -2.0965777E-19
  8.6999999E-04   -3.0006587E-19
  9.0500002E-04    2.8858752E-19
  9.4000000E-04    5.7670246E-19
  9.7499997E-04   -3.5114329E-19
  1.0100000E-03   -1.0533232E-18
  1.0450000E-03    3.3193380E-19
  1.0800000E-03    1.8344742E-18
  1.1150000E-03   -9.3961565E-20
  1.1500000E-03   -3.0478260E-18
  1.1849999E-03   -6.2141008E-19
  1.2200000E-03    4.8190740E-18
  1.2550000E-03    2.2649835E-18
  1.2900000E-03   -7.2082769E-18
  1.3250000E-03   -5.5684781E-18
  1.3600000E-03    1.0079570E-17
  1.3950000E-03    1.1637817E-17
  1.4299999E-03   -1.2865957E-17
  1.4650000E-03   -2.2015002E-17
  1.5000000E-03    1.4184485E-17
  1.5350000E-03    3.8636577E-17
  1.5700000E-03   -1.1261249E-17
  1.6050000E-03   -6.3563013E-17
  1.6400000E-03   -8.4601391E-19
  1.6749999E-03    9.8284191E-17
  1.7100000E-03    3.0170026E-17
  1.7450000E-03   -1.4233061E-16
  1.7800000E-03   -8.8705592E-17
  1.8150000E-03    1.9086444E-16
  1.8500000E-03    1.9280949E-16
  1.8850000E-03   -2.3093737E-16
  1.9200000E-03   -3.6237734E-16
  1.9550000E-03    2.3626136E-16
  1.9900000E-03    6.1762990E-16
  2.0250001E-03   -1.6074221E-16
  2.0600001E-03   -9.7190350E-16
  2.0949999E-03   -6.8196409E-17
  2.1299999E-03    1.4185302E-15
  2.1650000E-03    5.5421080E-16
  2.2000000E-03   -1.9099843E-15
  2.2350000E-03   -1.4304806E-15
  2.2700001E-03    2.3283786E-15
  2.3050001E-03    2.8457328E-15
  2.3399999E-03   -2.4486814E-15
  2.3749999E-03   -4.9294649E-15
  2.4100000E-03    1.9002553E-15
  2.4450000E-03    7.7269268E-15
  2.4800000E-03   -1.3869786E-16
  2.5150001E-03   -1.1095734E-14
  2.5500001E-03   -3.5516373E-15
  2.5849999E-03    1.4561555E-14
  2.6199999E-03    9.9948617E-15
  2.6550000E-03   -1.7142129E-14
  2.6900000E-03   -1.9963152E-14
  2.7250000E-03    1.7168907E-14
  2.7600001E-03    3.3879709E-14
  2.7950001E-03   -1.2164810E-14
  2.8299999E-03   -5.1357491E-14
  2.8649999E-03   -1.1290188E-15
  2.9000000E-03    7.0578499E-14
  2.9350000E-03    2.6453063E-14
  2.9700000E-03   -8.7576857E-14
  3.0050001E-03   -6.7317164E-14
  3.0400001E-03    9.5572550E-14
  3.0749999E-03    1.2575599E-13
  3.1099999E-03   -8.4605595E-14
  3.1450000E-03   -2.0050114E-13
  3.1800000E-03    4.1829526E-14
  3.2150000E-03    2.8466200E-13
  3.2500001E-03    4.7093941E-14
  3.2850001E-03   -3.6324451E-13
  3.3199999E-03   -1.9505875E-13
  3.3549999E-03    4.1115941E-13
  3.3900000E-03    4.0877054E-13
  3.4250000E-03   -3.9270087E-13
  3.4600000E-03   -6.8232003E-13
  3.4950001E-03    2.6369865E-13
  3.5300001E-03    9.8979473E-13
  3.5649999E-03    2.2458931E-14
  3.5999999E-03   -1.2783765E-12
  3.6350000E-03   -5.0402992E-13
  3.6700000E-03    1.4641950E-12
  3.7050000E-03    1.1952030E-12
  3.7400001E-03   -1.4339779E-12
  3.7750001E-03   -2.0666765E-12
  3.8099999E-03    1.0559186E-12
  3.8449999E-03    3.0258717E-12
  3.8800000E-03   -2.0245452E-13
  3.9149998E-03   -3.9024144E-12
  3.9499998E-03   -1.2145997E-12
  3.9849998E-03    4.4460074E-12
  4.0199999E-03    3.1995665E-12
  4.0549999E-03   -4.3437185E-12
  4.0899999E-03   -5.6257655E-12
  4.1250000E-03    3.2621362E-12
  4.1600000E-03    8.1960515E-12
  4.1950000E-03   -9.1693807E-13
  4.2300001E-03   -1.0425201E-11
  4.2650001E-03   -2.8332230E-12
  4.3000001E-03    1.1661250E-11
  4.3350002E-03    7.8813666E-12
  4.3700002E-03   -1.1160878E-11
  4.4049998E-03   -1.3780152E-11
  4.4399998E-03    8.2231366E-12
  4.4749998E-03    1.9695020E-11
  4.5099999E-03   -2.3687100E-12
  4.5449999E-03   -2.4430780E-11
  4.5799999E-03   -6.4627578E-12
  4.6150000E-03    2.6549327E-11
  4.6500000E-03    1.7732702E-11
  4.6850001E-03   -2.4586336E-11
  4.7200001E-03   -3.0184990E-11
  4.7550001E-03    1.7362656E-11
  4.7900002E-03    4.1846502E-11
  4.8250002E-03   -4.3555992E-12
  4.8600002E-03   -5.0206349E-11
  4.8949998E-03   -1.3953449E-11
  4.9299998E-03    5.2593978E-11
  4.9649999E-03    3.5869301E-11
  4.9999999E-03   -4.6702687E-11
  5.0349999E-03   -5.8497977E-11
  5.0700000E-03    3.1152272E-11
  5.1050000E-03    7.8006823E-11
  5.1400000E-03   -5.9918064E-12
  5.1750001E-03   -9.0112501E-11
  5.2100001E-03   -2.6931526E-11
  5.2450001E-03    9.0789751E-11
  5.2800002E-03    6.3846130E-11
  5.3150002E-03   -7.7161139E-11
  5.3500002E-03   -9.9336109E-11
  5.3849998E-03    4.8385074E-11
  5.4199998E-03    1.2711934E-10
  5.4549999E-03   -6.2258076E-12
  5.4899999E-03   -1.4117220E-10
  5.5249999E-03   -4.4925220E-11
  5.5600000E-03    1.3685934E-10
  5.5950000E-03    9.8520414E-11
  5.6300000E-03   -1.1183016E-10
  5.6650001E-03   -1.4660695E-10
  5.7000001E-03    6.6705093E-11
  5.7350001E-03    1.8082265E-10
  5.7700002E-03   -5.5731990E-12
  5.8050002E-03   -1.9380220E-10
  5.8400002E-03   -6.4023710E-11
  5.8749998E-03    1.8089376E-10
  5.9099998E-03    1.3207124E-10
  5.9449999E-03   -1.4153291E-10
  5.9799999E-03   -1.8794145E-10
  6.0149999E-03    7.9568137E-11
  6.0500000E-03    2.2233684E-10
  6.0850000E-03   -2.5880890E-12
  6.1200000E-03   -2.2862616E-10
  6.1550001E-03   -7.9022670E-11
  6.1900001E-03    2.0377254E-10
  6.2250001E-03    1.5298036E-10
  6.2600002E-03   -1.4946776E-10
  6.2950002E-03   -2.0663184E-10
  6.3299998E-03    7.3176055E-11
  6.3649998E-03    2.2975218E-10
  6.3999998E-03    1.2299000E-11
  6.4349999E-03   -2.1773482E-10
  6.4699999E-03   -9.1533656E-11
  6.5049999E-03    1.7317434E-10
  6.5400000E-03    1.5025844E-10
  6.5750000E-03   -1.0498134E-10
  6.6100000E-03   -1.7805889E-10
  6.6450001E-03    2.6420756E-11
  6.6800001E-03    1.6959283E-10
  6.7150001E-03    4.6312613E-11
  6.7500002E-03   -1.2593357E-10
  6.7850002E-03   -9.5723075E-11
  6.8199998E-03    5.6692564E-11
  6.8549998E-03    1.0695185E-10
  6.8899998E-03    1.9406777E-11
  6.9249999E-03   -7.3759762E-11
  6.9599999E-03   -7.8327116E-11
  6.9949999E-03    2.8879978E-12
  7.0300000E-03    9.8193315E-11
  7.0650000E-03    8.6534779E-11
  7.1000000E-03   -6.6467755E-11
  7.1350001E-03   -1.6804670E-10
  7.1700001E-03   -1.6300031E-11
  7.2050001E-03    2.1434482E-10
  7.2400002E-03    1.3607987E-10
  7.2750002E-03   -2.0331266E-10
  7.3099998E-03   -2.6701039E-10
  7.3449998E-03    1.2374476E-10
  7.3799998E-03    3.7524675E-10
  7.4149999E-03    1.9341331E-11
  7.4499999E-03   -4.2636267E-10
  7.4850000E-03   -2.0226672E-10
  7.5200000E-03    3.9586676E-10
  7.5550000E-03    3.8653847E-10
  7.5900001E-03   -2.7878999E-10
  7.6250001E-03   -5.2953913E-10
  7.6600001E-03    9.2995230E-11
  7.6950002E-03    5.9817923E-10
  7.7300002E-03    1.2670935E-10
  7.7650002E-03   -5.7864002E-10
  7.7999998E-03   -3.4113062E-10
  7.8349998E-03    4.7651583E-10
  7.8699999E-03    5.1737314E-10
  7.9049999E-03   -3.1039721E-10
  7.9399999E-03   -6.3299155E-10
  7.9750000E-03    1.0615665E-10
  8.0100000E-03    6.7826555E-10
  8.0450000E-03    1.1031639E-10
  8.0800001E-03   -6.5358019E-10
  8.1150001E-03   -3.1816932E-10
  8.1500001E-03    5.6161142E-10
  8.1850002E-03    4.9498039E-10
  8.2200002E-03   -4.1305398E-10
  8.2550002E-03   -6.2078126E-10
  8.2900003E-03    2.2872859E-10
  8.3250003E-03    6.8848155E-10
  8.3600003E-03   -2.4986650E-11
  8.3950004E-03   -6.9035166E-10
  8.4300004E-03   -1.7343281E-10
  8.4650004E-03    6.3386313E-10
  8.5000005E-03    3.5052772E-10
  8.5349996E-03   -5.3356497E-10
  8.5699996E-03   -5.1366372E-10
  8.6049996E-03    3.6328462E-10
  8.6399997E-03    6.0994521E-10
  8.6749997E-03   -1.6675450E-10
  8.7099997E-03   -6.4149269E-10
  8.7449998E-03   -3.0535120E-11
  8.7799998E-03    6.3799616E-10
  8.8149998E-03    2.8788680E-10
  8.8499999E-03   -4.5952345E-10
  8.8849999E-03   -3.8574349E-10
  8.9199999E-03    3.4226608E-10
  8.9550000E-03    5.2798477E-10
  8.9900000E-03   -1.1267588E-10
  9.0250000E-03   -5.9136163E-10
  9.0600001E-03   -2.7266178E-10
  9.0950001E-03    2.0241277E-10
  9.1300001E-03    9.3898162E-12
  9.1650002E-03   -6.3643574E-10
  9.2000002E-03   -9.5172692E-10
  9.2350002E-03   -7.8949830E-10
  9.2700003E-03   -7.0841349E-10
  9.3050003E-03   -1.0775396E-09
  9.3400003E-03   -1.7284937E-09
  9.3750004E-03   -2.4039473E-09
  9.4100004E-03   -3.0207765E-09
  9.4450004E-03   -3.5719603E-09
  9.4799995E-03   -4.2650461E-09
  9.5149996E-03   -5.5893614E-09
  9.5499996E-03   -7.6616260E-09
  9.5849996E-03   -9.7679411E-09
  9.6199997E-03   -1.1359715E-08
  9.6549997E-03   -1.3237284E-08
  9.6899997E-03   -1.6644439E-08
  9.7249998E-03   -2.1312738E-08
  9.7599998E-03   -2.5799384E-08
  9.7949998E-03   -2.9963790E-08
  9.8299999E-03   -3.5555452E-08
  9.8649999E-03   -4.3725692E-08
  9.8999999E-03   -5.3476224E-08
  9.9350000E-03   -6.3626906E-08
  9.9700000E-03   -7.5064939E-08
  1.0005000E-02   -8.9691113E-08
  1.0040000E-02   -1.0797406E-07
  1.0075000E-02   -1.2898970E-07
  1.0110000E-02   -1.5252135E-07
  1.0145000E-02   -1.7984850E-07
  1.0180000E-02   -2.1245313E-07
  1.0215000E-02   -2.5090259E-07
  1.0250000E-02   -2.9525793E-07
  1.0285000E-02   -3.4608686E-07
  1.0320000E-02   -4.0484954E-07
  1.0355000E-02   -4.7342155E-07
  1.0390000E-02   -5.5332606E-07
  1.0425000E-02   -6.4560464E-07
  1.0460000E-02   -7.5162603E-07
  1.0495000E-02   -8.7374173E-07
  1.0530000E-02   -1.0147303E-06
  1.0565000E-02   -1.1769046E-06
  1.0600000E-02   -1.3624054E-06
  1.0635000E-02   -1.5742030E-06
  1.0670000E-02   -1.8161687E-06
  1.0705000E-02   -2.0923319E-06
  1.0740000E-02   -2.4067231E-06
  1.0775000E-02   -2.7639048E-06
  1.0810000E-02   -3.1692484E-06
  1.0845000E-02   -3.6289307E-06
  1.0880000E-02   -4.1499852E-06
  1.0915000E-02   -4.7399794E-06
  1.0950000E-02   -5.4065154E-06
  1.0985000E-02   -6.1578594E-06
  1.1020000E-02   -7.0042765E-06
  1.1055000E-02   -7.9576430E-06
  1.1090000E-02   -9.0294516E-06
  1.1125000E-02   -1.0230687E-05
  1.1160000E-02   -1.1574462E-05
  1.1195000E-02   -1.3077353E-05
  1.1230000E-02   -1.4757128E-05
  1.1265000E-02   -1.6630696E-05
  1.1300000E-02   -1.8715811E-05
  1.1335000E-02   -2.1033855E-05
  1.1370000E-02   -2.3609495E-05
  1.1405000E-02   -2.6468233E-05
  1.1440000E-02   -2.9635750E-05
  1.1475000E-02   -3.3139622E-05
  1.1510000E-02   -3.7010806E-05
  1.1545000E-02   -4.1283201E-05
  1.1580000E-02   -4.5992201E-05
  1.1615000E-02   -5.1174127E-05
  1.1650000E-02   -5.6867506E-05
  1.1685000E-02   -6.3114749E-05
  1.1720000E-02   -6.9961869E-05
  1.1755000E-02   -7.7456432E-05
  1.1790000E-02   -8.5647196E-05
  1.1825000E-02   -9.4586489E-05
  1.1860000E-02   -1.0433156E-04
  1.1895000E-02   -1.1494225E-04
  1.1930000E-02   -1.2647927E-04
  1.1965000E-02   -1.3900609E-04
  1.2000000E-02   -1.5259074E-04
  1.2035000E-02   -1.6730382E-04
  1.2070000E-02   -1.8321657E-04
  1.2105000E-02   -2.0040282E-04
  1.2140000E-02   -2.1894106E-04
  1.2175000E-02   -2.3891203E-04
  1.2210000E-02   -2.6039561E-04
  1.2245000E-02   -2.8347349E-04
  1.2280000E-02   -3.0823302E-04
  1.2315000E-02   -3.3476404E-04
  1.2350000E-02   -3.6315332E-04
  1.2385000E-02   -3.9348679E-04
  1.2420000E-02   -4.2585557E-04
  1.2455000E-02   -4.6035391E-04
  1.2490000E-02   -4.9707119E-04
  1.2525000E-02   -5.3609244E-04
  1.2560000E-02   -5.7750521E-04
  1.2595000E-02   -6.2139874E-04
  1.2630000E-02   -6.6785776E-04
  1.2665000E-02   -7.1696099E-04
  1.2700000E-02   -7.6878414E-04
  1.2735000E-02   -8.2340109E-04
  1.2770000E-02   -8.8088040E-04
  1.2805000E-02   -9.4128482E-04
  1.2840000E-02   -1.0046711E-03
  1.2875000E-02   -1.0710873E-03
  1.2910000E-02   -1.1405721E-03
  1.2945000E-02   -1.2131586E-03
  1.2980000E-02   -1.2888713E-03
  1.3015000E-02   -1.3677217E-03
  1.3050000E-02   -1.4497073E-03
  1.3085000E-02   -1.5348163E-03
  1.3120000E-02   -1.6230247E-03
  1.3155000E-02   -1.7142947E-03
  1.3190000E-02   -1.8085687E-03
  1.3225000E-02   -1.9057766E-03
  1.3260000E-02   -2.0058334E-03
  1.3295000E-02   -2.1086347E-03
  1.3330000E-02   -2.2140574E-03
  1.3365000E-02   -2.3219623E-03
  1.3400000E-02   -2.4321852E-03
  1.3435000E-02   -2.5445430E-03
  1.3470000E-02   -2.6588398E-03
  1.3505000E-02   -2.7748568E-03
  1.3540000E-02   -2.8923443E-03
  1.3575000E-02   -3.0110318E-03
  1.3610000E-02   -3.1306383E-03
  1.3645000E-02   -3.2508583E-03
  1.3680000E-02   -3.3713572E-03
  1.3715000E-02   -3.4917830E-03
  1.3750000E-02   -3.6117651E-03
  1.3785000E-02   -3.7309080E-03
  1.3820000E-02   -3.8487951E-03
  1.3855000E-02   -3.9649936E-03
  1.3890000E-02   -4.0790546E-03
  1.3925000E-02   -4.1905097E-03
  1.3960000E-02   -4.2988672E-03
  1.3995000E-02   -4.4036228E-03
  1.4030000E-02   -4.5042676E-03
  1.4065000E-02   -4.6002753E-03
  1.4100000E-02   -4.6911058E-03
  1.4135000E-02   -4.7762189E-03
  1.4170000E-02   -4.8550670E-03
  1.4205000E-02   -4.9270866E-03
  1.4240000E-02   -4.9917200E-03
  1.4275000E-02   -5.0484273E-03
  1.4310000E-02   -5.0966647E-03
  1.4345000E-02   -5.1358747E-03
  1.4380000E-02   -5.1655178E-03
  1.4415000E-02   -5.1850858E-03
  1.4450000E-02   -5.1940791E-03
  1.4485000E-02   -5.1920060E-03
  1.4520000E-02   -5.1784040E-03
  1.4555000E-02   -5.1528364E-03
  1.4590000E-02   -5.1148916E-03
  1.4625000E-02   -5.0641932E-03
  1.4660000E-02   -5.0004027E-03
  1.4695000E-02   -4.9232137E-03
  1.4730000E-02   -4.8323614E-03
  1.4765000E-02   -4.7276272E-03
  1.4800000E-02   -4.6088439E-03
  1.4835000E-02   -4.4758921E-03
  1.4870000E-02   -4.3286998E-03
  1.4905000E-02   -4.1672480E-03
  1.4940000E-02   -3.9915922E-03
  1.4975000E-02   -3.8018362E-03
  1.5010000E-02   -3.5981324E-03
  1.5045000E-02   -3.3807084E-03
  1.5080000E-02   -3.1498664E-03
  1.5115000E-02   -2.9059569E-03
  1.5150000E-02   -2.6493964E-03
  1.5185000E-02   -2.3806782E-03
  1.5220000E-02   -2.1003524E-03
  1.5255000E-02   -1.8090208E-03
  1.5290000E-02   -1.5073672E-03
  1.5325000E-02   -1.1961493E-03
  1.5360000E-02   -8.7616965E-04
  1.5395000E-02   -5.4827891E-04
  1.5430000E-02   -2.1339406E-04
  1.5465000E-02    1.2750103E-04
  1.5500000E-02    4.7337549E-04
  1.5535000E-02    8.2316698E-04
  1.5570000E-02    1.1757696E-03
  1.5605000E-02    1.5300222E-03
  1.5640000E-02    1.8847311E-03
  1.5675001E-02    2.2386892E-03
  1.5710000E-02    2.5906602E-03
  1.5745001E-02    2.9393779E-03
  1.5780000E-02    3.2835715E-03
  1.5814999E-02    3.6219747E-03
  1.5850000E-02    3.9533172E-03
  1.5884999E-02    4.2763259E-03
  1.5920000E-02    4.5897411E-03
  1.5954999E-02    4.8923334E-03
  1.5990000E-02    5.1829070E-03
  1.6024999E-02    5.4602828E-03
  1.6060000E-02    5.7233162E-03
  1.6094999E-02    5.9709339E-03
  1.6130000E-02    6.2021189E-03
  1.6164999E-02    6.4158947E-03
  1.6200000E-02    6.6113514E-03
  1.6235000E-02    6.7876582E-03
  1.6270000E-02    6.9440603E-03
  1.6305000E-02    7.0798909E-03
  1.6340001E-02    7.1945786E-03
  1.6375000E-02    7.2876313E-03
  1.6410001E-02    7.3586525E-03
  1.6445000E-02    7.4073500E-03
  1.6480001E-02    7.4335271E-03
  1.6515000E-02    7.4371076E-03
  1.6550001E-02    7.4181315E-03
  1.6585000E-02    7.3767272E-03
  1.6620001E-02    7.3131192E-03
  1.6655000E-02    7.2276560E-03
  1.6690001E-02    7.1208035E-03
  1.6725000E-02    6.9931317E-03
  1.6759999E-02    6.8453071E-03
  1.6795000E-02    6.6780900E-03
  1.6829999E-02    6.4923521E-03
  1.6865000E-02    6.2890616E-03
  1.6899999E-02    6.0692625E-03
  1.6935000E-02    5.8340803E-03
  1.6969999E-02    5.5847298E-03
  1.7005000E-02    5.3224973E-03
  1.7039999E-02    5.0487351E-03
  1.7075000E-02    4.7648386E-03
  1.7109999E-02    4.4722413E-03
  1.7145000E-02    4.1724374E-03
  1.7180000E-02    3.8669638E-03
  1.7215000E-02    3.5573572E-03
  1.7250000E-02    3.2451667E-03
  1.7285001E-02    2.9319548E-03
  1.7320000E-02    2.6192714E-03
  1.7355001E-02    2.3086502E-03
  1.7390000E-02    2.0016097E-03
  1.7425001E-02    1.6996276E-03
  1.7460000E-02    1.4041389E-03
  1.7495001E-02    1.1165324E-03
  1.7530000E-02    8.3811930E-04
  1.7565001E-02    5.7014014E-04
  1.7600000E-02    3.1378219E-04
  1.7635001E-02    7.0145332E-05
  1.7670000E-02   -1.5977447E-04
  1.7704999E-02   -3.7507521E-04
  1.7740000E-02   -5.7496259E-04
  1.7774999E-02   -7.5874710E-04
  1.7810000E-02   -9.2583470E-04
  1.7844999E-02   -1.0757552E-03
  1.7880000E-02   -1.2081681E-03
  1.7914999E-02   -1.3228329E-03
  1.7950000E-02   -1.4196257E-03
  1.7984999E-02   -1.4985614E-03
  1.8020000E-02   -1.5597682E-03
  1.8054999E-02   -1.6034784E-03
  1.8090000E-02   -1.6300420E-03
  1.8124999E-02   -1.6399183E-03
  1.8160000E-02   -1.6336715E-03
  1.8195000E-02   -1.6119720E-03
  1.8230001E-02   -1.5755860E-03
  1.8265000E-02   -1.5253618E-03
  1.8300001E-02   -1.4622271E-03
  1.8335000E-02   -1.3871789E-03
  1.8370001E-02   -1.3012823E-03
  1.8405000E-02   -1.2056724E-03
  1.8440001E-02   -1.1015238E-03
  1.8475000E-02   -9.9003455E-04
  1.8510001E-02   -8.7243743E-04
  1.8545000E-02   -7.4999145E-04
  1.8580001E-02   -6.2395853E-04
  1.8615000E-02   -4.9559464E-04
  1.8650001E-02   -3.6614525E-04
  1.8685000E-02   -2.3683875E-04
  1.8719999E-02   -1.0887557E-04
  1.8755000E-02    1.6593207E-05
  1.8789999E-02    1.3847367E-04
  1.8825000E-02    2.5571935E-04
  1.8859999E-02    3.6734037E-04
  1.8895000E-02    4.7242455E-04
  1.8929999E-02    5.7014148E-04
  1.8965000E-02    6.5974228E-04
  1.8999999E-02    7.4057025E-04
  1.9035000E-02    8.1206625E-04
  1.9069999E-02    8.7376678E-04
  1.9105000E-02    9.2530367E-04
  1.9140000E-02    9.6640608E-04
  1.9175000E-02    9.9690538E-04
  1.9210000E-02    1.0167416E-03
  1.9245001E-02    1.0259658E-03
  1.9280000E-02    1.0247221E-03
  1.9315001E-02    1.0132333E-03
  1.9350000E-02    9.9181687E-04
  1.9385001E-02    9.6089800E-04
  1.9420000E-02    9.2098478E-04
  1.9455001E-02    8.7264675E-04
  1.9490000E-02    8.1652257E-04
  1.9525001E-02    7.5332419E-04
  1.9560000E-02    6.8382383E-04
  1.9595001E-02    6.0884131E-04
  1.9630000E-02    5.2923354E-04
  1.9664999E-02    4.4588075E-04
  1.9700000E-02    3.5967852E-04
  1.9734999E-02    2.7154409E-04
  1.9770000E-02    1.8241524E-04
  1.9804999E-02    9.3218528E-05
  1.9840000E-02    4.8480802E-06
  1.9874999E-02   -8.1817459E-05
  1.9910000E-02   -1.6591932E-04
  1.9944999E-02   -2.4664879E-04
  1.9980000E-02   -3.2324379E-04
  2.0014999E-02   -3.9498403E-04
  2.0050000E-02   -4.6121751E-04
  2.0085000E-02   -5.2136241E-04
  2.0120000E-02   -5.7489669E-04
  2.0155000E-02   -6.2137691E-04
  2.0190001E-02   -6.6044659E-04
  2.0225000E-02   -6.9182453E-04
  2.0260001E-02   -7.1530568E-04
  2.0295000E-02   -7.3076831E-04
  2.0330001E-02   -7.3818536E-04
  2.0365000E-02   -7.3762343E-04
  2.0400001E-02   -7.2921498E-04
  2.0435000E-02   -7.1315834E-04
  2.0470001E-02   -6.8974739E-04
  2.0505000E-02   -6.5935618E-04
  2.0540001E-02   -6.2241137E-04
  2.0575000E-02   -5.7940773E-04
  2.0609999E-02   -5.3090381E-04
  2.0645000E-02   -4.7749584E-04
  2.0679999E-02   -4.1982636E-04
  2.0715000E-02   -3.5858635E-04
  2.0749999E-02   -2.9448690E-04
  2.0785000E-02   -2.2825407E-04
  2.0819999E-02   -1.6063931E-04
  2.0855000E-02   -9.2401759E-05
  2.0889999E-02   -2.4284518E-05
  2.0925000E-02    4.2980890E-05
  2.0959999E-02    1.0866566E-04
  2.0995000E-02    1.7206708E-04
  2.1029999E-02    2.3253309E-04
  2.1065000E-02    2.8945203E-04
  2.1100000E-02    3.4224722E-04
  2.1135001E-02    3.9038973E-04
  2.1170000E-02    4.3340377E-04
  2.1205001E-02    4.7088412E-04
  2.1240000E-02    5.0250912E-04
  2.1275001E-02    5.2801031E-04
  2.1310000E-02    5.4716697E-04
  2.1345001E-02    5.5984844E-04
  2.1380000E-02    5.6601194E-04
  2.1415001E-02    5.6567631E-04
  2.1450000E-02    5.5892748E-04
  2.1485001E-02    5.4591772E-04
  2.1520000E-02    5.2686891E-04
  2.1555001E-02    5.0208718E-04
  2.1590000E-02    4.7192982E-04
  2.1624999E-02    4.3678225E-04
  2.1660000E-02    3.9709889E-04
  2.1694999E-02    3.5340231E-04
  2.1730000E-02    3.0623685E-04
  2.1764999E-02    2.5617695E-04
  2.1800000E-02    2.0383451E-04
  2.1834999E-02    1.4982570E-04
  2.1870000E-02    9.4773466E-05
  2.1904999E-02    3.9325641E-05
  2.1940000E-02   -1.5867439E-05
  2.1974999E-02   -7.0176124E-05
  2.2010000E-02   -1.2299574E-04
  2.2045000E-02   -1.7374645E-04
  2.2080000E-02   -2.2186546E-04
  2.2115000E-02   -2.6681472E-04
  2.2150001E-02   -3.0810857E-04
  2.2185000E-02   -3.4532172E-04
  2.2220001E-02   -3.7807802E-04
  2.2255000E-02   -4.0604637E-04
  2.2290001E-02   -4.2894611E-04
  2.2325000E-02   -4.4656388E-04
  2.2360001E-02   -4.5876257E-04
  2.2395000E-02   -4.6546719E-04
  2.2430001E-02   -4.6665204E-04
  2.2465000E-02   -4.6235207E-04
  2.2500001E-02   -4.5267987E-04
  2.2535000E-02   -4.3782304E-04
  2.2569999E-02   -4.1801497E-04
  2.2605000E-02   -3.9352314E-04
  2.2639999E-02   -3.6467917E-04
  2.2675000E-02   -3.3188751E-04
  2.2709999E-02   -2.9558383E-04
  2.2745000E-02   -2.5621976E-04
  2.2779999E-02   -2.1428721E-04
  2.2815000E-02   -1.7031557E-04
  2.2849999E-02   -1.2484984E-04
  2.2885000E-02   -7.8448043E-05
  2.2919999E-02   -3.1675754E-05
  2.2955000E-02    1.4908482E-05
  2.2990000E-02    6.0755316E-05
  2.3025000E-02    1.0532492E-04
  2.3060000E-02    1.4809427E-04
  2.3095001E-02    1.8856618E-04
  2.3130000E-02    2.2627975E-04
  2.3165001E-02    2.6081139E-04
  2.3200000E-02    2.9177419E-04
  2.3235001E-02    3.1883211E-04
  2.3270000E-02    3.4170027E-04
  2.3305001E-02    3.6013310E-04
  2.3340000E-02    3.7394621E-04
  2.3375001E-02    3.8303089E-04
  2.3410000E-02    3.8732355E-04
  2.3445001E-02    3.8680600E-04
  2.3480000E-02    3.8153635E-04
  2.3514999E-02    3.7162830E-04
  2.3550000E-02    3.5723136E-04
  2.3584999E-02    3.3856145E-04
  2.3620000E-02    3.1589990E-04
  2.3654999E-02    2.8956129E-04
  2.3690000E-02    2.5989735E-04
  2.3724999E-02    2.2729914E-04
  2.3760000E-02    1.9218367E-04
  2.3794999E-02    1.5500534E-04
  2.3830000E-02    1.1625333E-04
  2.3864999E-02    7.6419637E-05
  2.3900000E-02    3.5995832E-05
  2.3934999E-02   -4.5151301E-06
  2.3970000E-02   -4.4611064E-05
  2.4005000E-02   -8.3800740E-05
  2.4040001E-02   -1.2160643E-04
  2.4075000E-02   -1.5757307E-04
  2.4110001E-02   -1.9126925E-04
  2.4145000E-02   -2.2229079E-04
  2.4180001E-02   -2.5028002E-04
  2.4215000E-02   -2.7492453E-04
  2.4250001E-02   -2.9593892E-04
  2.4285000E-02   -3.1307837E-04
  2.4320001E-02   -3.2616773E-04
  2.4355000E-02   -3.3509111E-04
  2.4390001E-02   -3.3976941E-04
  2.4425000E-02   -3.4017186E-04
  2.4460001E-02   -3.3632928E-04
  2.4495000E-02   -3.2832415E-04
  2.4529999E-02   -3.1628992E-04
  2.4565000E-02   -3.0041338E-04
  2.4599999E-02   -2.8092402E-04
  2.4635000E-02   -2.5809795E-04
  2.4669999E-02   -2.3225835E-04
  2.4705000E-02   -2.0374890E-04
  2.4739999E-02   -1.7293726E-04
  2.4775000E-02   -1.4024260E-04
  2.4809999E-02   -1.0610899E-04
  2.4845000E-02   -7.0969494E-05
  2.4879999E-02   -3.5266508E-05
  2.4915000E-02    5.3800329E-07
  2.4950000E-02    3.5986483E-05
  2.4985000E-02    7.0627771E-05
  2.5020000E-02    1.0401785E-04
  2.5055001E-02    1.3574355E-04
  2.5090000E-02    1.6542377E-04
  2.5125001E-02    1.9269508E-04
  2.5160000E-02    2.1722217E-04
  2.5195001E-02    2.3871163E-04
  2.5230000E-02    2.5691016E-04
  2.5265001E-02    2.7160812E-04
  2.5300000E-02    2.8264537E-04
  2.5335001E-02    2.8990902E-04
  2.5370000E-02    2.9333244E-04
  2.5405001E-02    2.9289868E-04
  2.5440000E-02    2.8863928E-04
  2.5474999E-02    2.8063625E-04
  2.5510000E-02    2.6902286E-04
  2.5544999E-02    2.5397603E-04
  2.5580000E-02    2.3571408E-04
  2.5614999E-02    2.1449791E-04
  2.5650000E-02    1.9061996E-04
  2.5684999E-02    1.6440378E-04
  2.5720000E-02    1.3621467E-04
  2.5754999E-02    1.0643910E-04
  2.5790000E-02    7.5464566E-05
  2.5824999E-02    4.3696615E-05
  2.5860000E-02    1.1556974E-05
  2.5895000E-02   -2.0536105E-05
  2.5930000E-02   -5.2157211E-05
  2.5965000E-02   -8.2882907E-05
  2.6000001E-02   -1.1232733E-04
  2.6035000E-02   -1.4012968E-04
  2.6070001E-02   -1.6593422E-04
  2.6105000E-02   -1.8941234E-04
  2.6140001E-02   -2.1026838E-04
  2.6175000E-02   -2.2823719E-04
  2.6210001E-02   -2.4310543E-04
  2.6245000E-02   -2.5471012E-04
  2.6280001E-02   -2.6292374E-04
  2.6315000E-02   -2.6765952E-04
  2.6350001E-02   -2.6886701E-04
  2.6385000E-02   -2.6654149E-04
  2.6419999E-02   -2.6074980E-04
  2.6455000E-02   -2.5160488E-04
  2.6489999E-02   -2.3923734E-04
  2.6525000E-02   -2.2382679E-04
  2.6559999E-02   -2.0560694E-04
  2.6595000E-02   -1.8483365E-04
  2.6629999E-02   -1.6179410E-04
  2.6665000E-02   -1.3681524E-04
  2.6699999E-02   -1.1024057E-04
  2.6735000E-02   -8.2427934E-05
  2.6769999E-02   -5.3757092E-05
  2.6805000E-02   -2.4618115E-05
  2.6839999E-02    4.5965667E-06
  2.6875000E-02    3.3497825E-05
  2.6910000E-02    6.1705323E-05
  2.6945001E-02    8.8845467E-05
  2.6980000E-02    1.1456001E-04