 -4.8000002E-03    1.0000000E-24
 -4.7650002E-03    1.0000002E-24
 -4.7300002E-03    1.0000001E-24
 -4.6950001E-03    1.0000000E-24
 -4.6600001E-03    1.0000002E-24
 -4.6250001E-03    1.0000002E-24
 -4.5900000E-03    1.0000002E-24
 -4.5550000E-03    1.0000000E-24
 -4.5200000E-03    1.0000000E-24
 -4.4849999E-03    1.0000002E-24
 -4.4499999E-03    1.0000002E-24
 -4.4149999E-03    9.9999972E-25
 -4.3799998E-03    1.0000001E-24
 -4.3449998E-03    1.0000003E-24
 -4.3100002E-03    1.0000001E-24
 -4.2750002E-03    1.0000002E-24
 -4.2400002E-03    1.0000002E-24
 -4.2050001E-03    9.9999982E-25
 -4.1700001E-03    1.0000002E-24
 -4.1350001E-03    1.0000001E-24
 -4.1000000E-03    9.9999953E-25
 -4.0650000E-03    1.0000002E-24
 -4.0300000E-03    1.0000005E-24
 -3.9949999E-03    9.9999943E-25
 -3.9599999E-03    9.9999933E-25
 -3.9249999E-03    1.0000004E-24
 -3.8900001E-03    1.0000001E-24
 -3.8550000E-03    9.9999982E-25
 -3.8200000E-03    1.0000005E-24
 -3.7849999E-03    1.0000005E-24
 -3.7499999E-03    9.9999982E-25
 -3.7150001E-03    1.0000003E-24
 -3.6800001E-03    1.0000006E-24
 -3.6450000E-03    9.9999963E-25
 -3.6100000E-03    9.9999963E-25
 -3.5750000E-03    1.0000005E-24
 -3.5399999E-03    1.0000000E-24
 -3.5049999E-03    9.9999953E-25
 -3.4700001E-03    1.0000004E-24
 -3.4350001E-03    1.0000005E-24
 -3.4000000E-03    9.9999953E-25
 -3.3650000E-03    9.9999963E-25
 -3.3300000E-03    1.0000006E-24
 -3.2949999E-03    1.0000002E-24
 -3.2599999E-03    9.9999943E-25
 -3.2250001E-03    9.9999972E-25
 -3.1900001E-03    1.0000004E-24
 -3.1550000E-03    1.0000001E-24
 -3.1200000E-03    1.0000001E-24
 -3.0850000E-03    1.0000008E-24
 -3.0499999E-03    1.0000005E-24
 -3.0149999E-03    9.9999963E-25
 -2.9800001E-03    9.9999982E-25
 -2.9450001E-03    1.0000004E-24
 -2.9100000E-03    9.9999982E-25
 -2.8750000E-03    9.9999963E-25
 -2.8400000E-03    1.0000002E-24
 -2.8049999E-03    1.0000003E-24
 -2.7699999E-03    9.9999982E-25
 -2.7350001E-03    1.0000001E-24
 -2.7000001E-03    1.0000009E-24
 -2.6650000E-03    1.0000000E-24
 -2.6300000E-03    9.9999913E-25
 -2.5950000E-03    9.9999953E-25
 -2.5599999E-03    1.0000002E-24
 -2.5249999E-03    1.0000007E-24
 -2.4900001E-03    1.0000007E-24
 -2.4550001E-03    1.0000010E-24
 -2.4200000E-03    1.0000002E-24
 -2.3850000E-03    9.9999903E-25
 -2.3500000E-03    9.9999943E-25
 -2.3149999E-03    9.9999982E-25
 -2.2799999E-03    9.9999933E-25
 -2.2450001E-03    1.0000004E-24
 -2.2100001E-03    1.0000013E-24
 -2.1750000E-03    9.9999953E-25
 -2.1400000E-03    9.9999864E-25
 -2.1050000E-03    1.0000007E-24
 -2.0699999E-03    1.0000011E-24
 -2.0349999E-03    9.9999953E-25
 -2.0000001E-03    9.9999953E-25
 -1.9650001E-03    1.0000008E-24
 -1.9300000E-03    1.0000008E-24
 -1.8950000E-03    9.9999992E-25
 -1.8600000E-03    9.9999992E-25
 -1.8250000E-03    1.0000008E-24
 -1.7900000E-03    1.0000003E-24
 -1.7550000E-03    9.9999874E-25
 -1.7199999E-03    9.9999943E-25
 -1.6850000E-03    1.0000008E-24
 -1.6500000E-03    1.0000005E-24
 -1.6150000E-03    1.0000000E-24
 -1.5800000E-03    9.9999943E-25
 -1.5450000E-03    9.9999854E-25
 -1.5100000E-03    9.9999953E-25
 -1.4750001E-03    1.0000010E-24
 -1.4400000E-03    1.0000003E-24
 -1.4050000E-03    1.0000000E-24
 -1.3700000E-03    1.0000009E-24
 -1.3350000E-03    1.0000000E-24
 -1.3000000E-03    1.0000009E-24
 -1.2650000E-03    1.0000004E-24
 -1.2300001E-03    9.9998888E-25
 -1.1950000E-03    1.0000024E-24
 -1.1600000E-03    1.0000464E-24
 -1.1250000E-03    9.9996689E-25
 -1.0900000E-03    9.9986148E-25
 -1.0550000E-03    1.0001853E-24
 -1.0200000E-03    1.0003100E-24
 -9.8500005E-04    9.9928186E-25
 -9.5000002E-04    9.9955126E-25
 -9.1499998E-04    1.0021809E-24
 -8.8000001E-04    9.9993011E-25
 -8.4499997E-04    9.9456615E-25
 -8.1000000E-04    1.0031766E-24
 -7.7500002E-04    1.0111438E-24
 -7.3999999E-04    9.8665486E-25
 -7.0500001E-04    9.8202829E-25
 -6.6999998E-04    1.0387287E-24
 -6.3500000E-04    1.0185221E-24
 -6.0000003E-04    9.0952852E-25
 -5.6499999E-04    1.0071387E-24
 -5.3000002E-04    1.1770966E-24
 -4.9499999E-04    9.0211569E-25
 -4.6000001E-04    7.0923891E-25
 -4.2500001E-04    1.3100971E-24
 -3.9000000E-04    1.3864985E-24
 -3.5500000E-04    3.0589410E-25
 -3.1999999E-04    6.3155262E-25
 -2.8499999E-04    2.2312096E-24
 -2.5000001E-04    1.1215408E-24
 -2.1499999E-04   -7.2313868E-25
 -1.8000000E-04    1.3391863E-24
 -1.4500000E-04    2.6565181E-24
 -1.1000000E-04    5.0298319E-25
 -7.5000004E-05    8.8114945E-25
 -3.9999999E-05   -3.7846807E-25
 -4.9999999E-06   -3.0970547E-24
  2.9999999E-05    1.0381302E-23
  6.5000000E-05    1.3040513E-23
  9.9999997E-05   -3.0603092E-23
  1.3499999E-04   -2.2727165E-23
  1.7000000E-04    8.3249627E-23
  2.0500000E-04    3.8039580E-23
  2.3999999E-04   -1.8325594E-22
  2.7500000E-04   -4.6151897E-23
  3.1000000E-04    3.7354326E-22
  3.4500001E-04    4.9122388E-23
  3.8000001E-04   -6.9726070E-22
  4.1499999E-04   -3.8670003E-23
  4.4999999E-04    1.2354126E-21
  4.8500000E-04    4.5164631E-23
  5.2000000E-04   -2.0816858E-21
  5.5499998E-04   -1.4081349E-22
  5.9000001E-04    3.3801898E-21
  6.2499999E-04    5.3715319E-22
  6.6000002E-04   -5.2907659E-21
  6.9500000E-04   -1.6659824E-21
  7.3000003E-04    7.9923491E-21
  7.6500000E-04    4.3940549E-21
  7.9999998E-04   -1.1560020E-20
  8.3500001E-04   -1.0267226E-20
  8.6999999E-04    1.5776457E-20
  9.0500002E-04    2.1928628E-20
  9.4000000E-04   -1.9634807E-20
  9.7499997E-04   -4.3570020E-20
  1.0100000E-03    2.0479704E-20
  1.0450000E-03    8.1461929E-20
  1.0800000E-03   -1.2399651E-20
  1.1150000E-03   -1.4421155E-19
  1.1500000E-03   -1.6327253E-20
  1.1849999E-03    2.4240086E-19
  1.2200000E-03    8.7205768E-20
  1.2550000E-03   -3.8659328E-19
  1.2900000E-03   -2.3700105E-19
  1.3250000E-03    5.8235263E-19
  1.3600000E-03    5.2464385E-19
  1.3950000E-03   -8.1989811E-19
  1.4299999E-03   -1.0383325E-18
  1.4650000E-03    1.0554353E-18
  1.5000000E-03    1.9000951E-18
  1.5350000E-03   -1.1804620E-18
  1.5700000E-03   -3.2620552E-18
  1.6050000E-03    9.7583748E-19
  1.6400000E-03    5.2845145E-18
  1.6749999E-03   -4.9557069E-20
  1.7100000E-03   -8.0804048E-18
  1.7450000E-03   -2.2372651E-18
  1.7800000E-03    1.1604533E-17
  1.8150000E-03    6.8407171E-18
  1.8500000E-03   -1.5461643E-17
  1.8850000E-03   -1.5067714E-17
  1.9200000E-03    1.8607577E-17
  1.9550000E-03    2.8513438E-17
  1.9900000E-03   -1.8930637E-17
  2.0250001E-03   -4.8809665E-17
  2.0600001E-03    1.2732246E-17
  2.0949999E-03    7.7055845E-17
  2.1299999E-03    5.8122925E-18
  2.1650000E-03   -1.1277925E-16
  2.2000000E-03   -4.5030167E-17
  2.2350000E-03    1.5227958E-16
  2.2700001E-03    1.1564304E-16
  2.3050001E-03   -1.8628368E-16
  2.3399999E-03   -2.2967838E-16
  2.3749999E-03    1.9701587E-16
  2.4100000E-03    3.9774081E-16
  2.4450000E-03   -1.5511663E-16
  2.4800000E-03   -6.2389392E-16
  2.5150001E-03    1.7348598E-17
  2.5500001E-03    8.9748869E-16
  2.5849999E-03    2.7330296E-16
  2.6199999E-03   -1.1817265E-15
  2.6550000E-03   -7.8278243E-16
  2.6900000E-03    1.3997200E-15
  2.7250000E-03    1.5734701E-15
  2.7600001E-03   -1.4202867E-15
  2.7950001E-03   -2.6809711E-15
  2.8299999E-03    1.0481031E-15
  2.8649999E-03    4.0780613E-15
  2.9000000E-03   -2.5250467E-17
  2.9350000E-03   -5.6260000E-15
  2.9700000E-03   -1.9460559E-15
  3.0050001E-03    7.0179462E-15
  3.0400001E-03    5.1485881E-15
  3.0749999E-03   -7.7259095E-15
  3.1099999E-03   -9.7534116E-15
  3.1450000E-03    6.9709058E-15
  3.1800000E-03    1.5677591E-14
  3.2150000E-03   -3.7444341E-15
  3.2500001E-03   -2.2404016E-14
  3.2850001E-03   -3.0853645E-15
  3.3199999E-03    2.8788980E-14
  3.3549999E-03    1.4550147E-14
  3.3900000E-03   -3.2905685E-14
  3.4250000E-03   -3.1219893E-14
  3.4600000E-03    3.1997439E-14
  3.4950001E-03    5.2710247E-14
  3.5300001E-03   -2.2632658E-14
  3.5649999E-03   -7.7111393E-14
  3.5999999E-03    1.1583467E-15
  3.6350000E-03    1.0045340E-13
  3.6700000E-03    3.5482586E-14
  3.7050000E-03   -1.1638128E-13
  3.7400001E-03   -8.8562370E-14
  3.7750001E-03    1.1627240E-13
  3.8099999E-03    1.5611511E-13
  3.8449999E-03   -9.0026626E-14
  3.8800000E-03   -2.3145356E-13
  3.9149998E-03    2.7720019E-14
  3.9499998E-03    3.0204165E-13
  3.9849998E-03    7.7819478E-14
  4.0199999E-03   -3.4924502E-13
  4.0549999E-03   -2.2769661E-13
  4.0899999E-03    3.4951260E-13
  4.1250000E-03    4.1338282E-13
  4.1600000E-03   -2.7744926E-13
  4.1950000E-03   -6.1374452E-13
  4.2300001E-03    1.1089412E-13
  4.2650001E-03    7.9373021E-13
  4.3000001E-03    1.6233888E-13
  4.3350002E-03   -9.0580061E-13
  4.3700002E-03   -5.3699867E-13
  4.4049998E-03    8.9497528E-13
  4.4399998E-03    9.8370259E-13
  4.4749998E-03   -7.0787527E-13
  4.5099999E-03   -1.4450342E-12
  4.5449999E-03    3.0524002E-13
  4.5799999E-03    1.8365344E-12
  4.6150000E-03    3.2372591E-13
  4.6500000E-03   -2.0544703E-12
  4.6850001E-03   -1.1481348E-12
  4.7200001E-03    1.9908593E-12
  4.7550001E-03    2.0870512E-12
  4.7900002E-03   -1.5544096E-12
  4.8250002E-03   -3.0091537E-12
  4.8600002E-03    6.9452435E-13
  4.8949998E-03    3.7429274E-12
  4.9299998E-03    5.7588477E-13
  4.9649999E-03   -4.0980795E-12
  4.9999999E-03   -2.1637785E-12
  5.0349999E-03    3.8972488E-12
  5.0700000E-03    3.8912758E-12
  5.1050000E-03   -3.0137871E-12
  5.1400000E-03   -5.5073090E-12
  5.1750001E-03    1.4085770E-12
  5.2100001E-03    6.7169022E-12
  5.2450001E-03    8.4272487E-13
  5.2800002E-03   -7.2250881E-12
  5.3150002E-03   -3.5398054E-12
  5.3500002E-03    6.7876347E-12
  5.3849998E-03    6.3682492E-12
  5.4199998E-03   -5.2597098E-12
  5.4549999E-03   -8.9291768E-12
  5.4899999E-03    2.6362996E-12
  5.5249999E-03    1.0785543E-11
  5.5600000E-03    9.2073755E-13
  5.5950000E-03   -1.1523304E-11
  5.6300000E-03   -5.0764774E-12
  5.6650001E-03    1.0822151E-11
  5.7000001E-03    9.3470275E-12
  5.7350001E-03   -8.5205931E-12
  5.7700002E-03   -1.3153316E-11
  5.8050002E-03    4.6575591E-12
  5.8400002E-03    1.5886932E-11
  5.8749998E-03    5.0816583E-13
  5.9099998E-03   -1.6976847E-11
  5.9449999E-03   -6.4869629E-12
  5.9799999E-03    1.5969677E-11
  6.0149999E-03    1.2563090E-11
  6.0500000E-03   -1.2636541E-11
  6.0850000E-03   -1.7849409E-11
  6.1200000E-03    7.0809057E-12
  6.1550001E-03    2.1411272E-11
  6.1900001E-03    2.0460540E-13
  6.2250001E-03   -2.2427451E-11
  6.2600002E-03   -8.3508964E-12
  6.2950002E-03    2.0351044E-11
  6.3299998E-03    1.6183034E-11
  6.3649998E-03   -1.5062299E-11
  6.3999998E-03   -2.2353831E-11
  6.4349999E-03    6.9991591E-12
  6.4699999E-03    2.5558817E-11
  6.5049999E-03    2.7813468E-12
  6.5400000E-03   -2.4818933E-11
  6.5750000E-03   -1.2657585E-11
  6.6100000E-03    1.9796609E-11
  6.6450001E-03    2.0663757E-11
  6.6800001E-03   -1.1075523E-11
  6.7150001E-03   -2.4927277E-11
  6.7500002E-03    2.2940143E-13
  6.7850002E-03    2.4225044E-11
  6.8199998E-03    1.0468341E-11
  6.8549998E-03   -1.8365578E-11
  6.8899998E-03   -1.8540116E-11
  6.9249999E-03    8.2669383E-12
  6.9599999E-03    2.1717043E-11
  6.9949999E-03    4.0241382E-12
  7.0300000E-03   -1.8388518E-11
  7.0650000E-03   -1.5331278E-11
  7.1000000E-03    8.3851467E-12
  7.1350001E-03    2.1907972E-11
  7.1700001E-03    6.3324164E-12
  7.2050001E-03   -2.0754965E-11
  7.2400002E-03   -2.1957257E-11
  7.2750002E-03    1.0798097E-11
  7.3099998E-03    3.3977619E-11
  7.3449998E-03    6.8508688E-12
  7.3799998E-03   -3.8181586E-11
  7.4149999E-03   -2.9053947E-11
  7.4499999E-03    3.1394654E-11
  7.4850000E-03    5.0747864E-11
  7.5200000E-03   -1.2594908E-11
  7.5550000E-03   -6.5711381E-11
  7.5900001E-03   -1.6053478E-11
  7.6250001E-03    6.8308859E-11
  7.6600001E-03    4.9321304E-11
  7.6950002E-03   -5.5149923E-11
  7.7300002E-03   -7.9949401E-11
  7.7650002E-03    2.6146170E-11
  7.7999998E-03    1.0003862E-10
  7.8349998E-03    1.4772572E-11
  7.8699999E-03   -1.0323448E-10
  7.9049999E-03   -6.0269525E-11
  7.9399999E-03    8.6814625E-11
  7.9750000E-03    1.0199203E-10
  8.0100000E-03   -5.1489774E-11
  8.0450000E-03   -1.3194024E-10
  8.0800001E-03    4.8521815E-13
  8.1150001E-03    1.4188430E-10
  8.1500001E-03    5.8636852E-11
  8.1850002E-03   -1.2555935E-10
  8.2200002E-03   -1.1295056E-10
  8.2550002E-03    8.4136885E-11
  8.2900003E-03    1.4967311E-10
  8.3250003E-03   -2.6389104E-11
  8.3600003E-03   -1.6213086E-10
  8.3950004E-03   -3.7588078E-11
  8.4300004E-03    1.4756790E-10
  8.4650004E-03    9.7545805E-11
  8.5000005E-03   -1.0488245E-10
  8.5349996E-03   -1.3918580E-10
  8.5699996E-03    4.1104946E-11
  8.6049996E-03    1.4944407E-10
  8.6399997E-03    2.6118810E-11
  8.6749997E-03   -1.2750230E-10
  8.7099997E-03   -7.9583874E-11
  8.7449998E-03    8.3232365E-11
  8.7799998E-03    1.1078709E-10
  8.8149998E-03   -2.7267431E-11
  8.8499999E-03   -1.1468219E-10
  8.8849999E-03   -2.7420961E-11
  8.9199999E-03    9.0236131E-11
  8.9550000E-03    6.2299430E-11
  8.9900000E-03   -5.2355627E-11
  9.0250000E-03   -7.1492784E-11
  9.0600001E-03    1.8780555E-11
  9.0950001E-03    6.4020372E-11
  9.1300001E-03    6.6312650E-12
  9.1650002E-03   -4.2421067E-11
  9.2000002E-03   -1.6595218E-11
  9.2350002E-03    1.3590659E-11
  9.2700003E-03    6.0234686E-12
  9.3050003E-03    1.4876522E-11
  9.3400003E-03    3.9368342E-11
  9.3750004E-03    3.1633402E-12
  9.4100004E-03   -5.9923781E-11
  9.4450004E-03   -1.9913111E-11
  9.4799995E-03    8.9673671E-11
  9.5149996E-03    7.9030345E-11
  9.5499996E-03   -5.3315199E-11
  9.5849996E-03   -7.0709272E-11
  9.6199997E-03    9.3039035E-11
  9.6549997E-03    1.8418586E-10
  9.6899997E-03    5.1086659E-11
  9.7249998E-03   -8.5905769E-11
  9.7599998E-03    5.7501768E-12
  9.7949998E-03    2.0290820E-10
  9.8299999E-03    2.4606800E-10
  9.8649999E-03    1.2771703E-10
  9.8999999E-03    5.4840892E-11
  9.9350000E-03    1.5366082E-10
  9.9700000E-03    3.4929554E-10
  1.0005000E-02    4.5932103E-10
  1.0040000E-02    3.8330938E-10
  1.0075000E-02    2.7640110E-10
  1.0110000E-02    4.2407006E-10
  1.0145000E-02    8.0850360E-10
  1.0180000E-02    1.0276323E-09
  1.0215000E-02    8.9452057E-10
  1.0250000E-02    8.2140106E-10
  1.0285000E-02    1.2183894E-09
  1.0320000E-02    1.8044360E-09
  1.0355000E-02    2.0352806E-09
  1.0390000E-02    1.9925794E-09
  1.0425000E-02    2.2512165E-09
  1.0460000E-02    2.9759413E-09
  1.0495000E-02    3.7379504E-09
  1.0530000E-02    4.2209760E-09
  1.0565000E-02    4.6238893E-09
  1.0600000E-02    5.3191025E-09
  1.0635000E-02    6.4276109E-09
  1.0670000E-02    7.7389917E-09
  1.0705000E-02    8.9285290E-09
  1.0740000E-02    9.9844559E-09
  1.0775000E-02    1.1386617E-08
  1.0810000E-02    1.3514884E-08
  1.0845000E-02    1.5985469E-08
  1.0880000E-02    1.8181689E-08
  1.0915000E-02    2.0371422E-08
  1.0950000E-02    2.3457007E-08
  1.0985000E-02    2.7546132E-08
  1.1020000E-02    3.1776960E-08
  1.1055000E-02    3.5830290E-08
  1.1090000E-02    4.0563926E-08
  1.1125000E-02    4.6684622E-08
  1.1160000E-02    5.3752231E-08
  1.1195000E-02    6.1108537E-08
  1.1230000E-02    6.9022370E-08
  1.1265000E-02    7.8269132E-08
  1.1300000E-02    8.9129536E-08
  1.1335000E-02    1.0131371E-07
  1.1370000E-02    1.1456864E-07
  1.1405000E-02    1.2911084E-07
  1.1440000E-02    1.4557244E-07
  1.1475000E-02    1.6448763E-07
  1.1510000E-02    1.8572293E-07
  1.1545000E-02    2.0880697E-07
  1.1580000E-02    2.3401299E-07
  1.1615000E-02    2.6248162E-07
  1.1650000E-02    2.9480464E-07
  1.1685000E-02    3.3041292E-07
  1.1720000E-02    3.6904561E-07
  1.1755000E-02    4.1178021E-07
  1.1790000E-02    4.5972996E-07
  1.1825000E-02    5.1279181E-07
  1.1860000E-02    5.7067473E-07
  1.1895000E-02    6.3417036E-07
  1.1930000E-02    7.0439512E-07
  1.1965000E-02    7.8168750E-07
  1.2000000E-02    8.6616768E-07
  1.2035000E-02    9.5865732E-07
  1.2070000E-02    1.0601359E-06
  1.2105000E-02    1.1709684E-06
  1.2140000E-02    1.2916022E-06
  1.2175000E-02    1.4233376E-06
  1.2210000E-02    1.5672995E-06
  1.2245000E-02    1.7236659E-06
  1.2280000E-02    1.8929205E-06
  1.2315000E-02    2.0767986E-06
  1.2350000E-02    2.2767977E-06
  1.2385000E-02    2.4932554E-06
  1.2420000E-02    2.7267422E-06
  1.2455000E-02    2.9790463E-06
  1.2490000E-02    3.2518005E-06
  1.2525000E-02    3.5457706E-06
  1.2560000E-02    3.8618446E-06
  1.2595000E-02    4.2018046E-06
  1.2630000E-02    4.5671904E-06
  1.2665000E-02    4.9590763E-06
  1.2700000E-02    5.3789713E-06
  1.2735000E-02    5.8285445E-06
  1.2770000E-02    6.3090770E-06
  1.2805000E-02    6.8221134E-06
  1.2840000E-02    7.3696542E-06
  1.2875000E-02    7.9534175E-06
  1.2910000E-02    8.5746678E-06
  1.2945000E-02    9.2347491E-06
  1.2980000E-02    9.9354011E-06
  1.3015000E-02    1.0678894E-05
  1.3050000E-02    1.1467104E-05
  1.3085000E-02    1.2300575E-05
  1.3120000E-02    1.3180931E-05
  1.3155000E-02    1.4111386E-05
  1.3190000E-02    1.5093186E-05
  1.3225000E-02    1.6126103E-05
  1.3260000E-02    1.7212637E-05
  1.3295000E-02    1.8354966E-05
  1.3330000E-02    1.9553914E-05
  1.3365000E-02    2.0810805E-05
  1.3400000E-02    2.2126953E-05
  1.3435000E-02    2.3502729E-05
  1.3470000E-02    2.4940005E-05
  1.3505000E-02    2.6440155E-05
  1.3540000E-02    2.8002683E-05
  1.3575000E-02    2.9628940E-05
  1.3610000E-02    3.1319687E-05
  1.3645000E-02    3.3073487E-05
  1.3680000E-02    3.4892077E-05
  1.3715000E-02    3.6777154E-05
  1.3750000E-02    3.8725408E-05
  1.3785000E-02    4.0735409E-05
  1.3820000E-02    4.2809836E-05
  1.3855000E-02    4.4947283E-05
  1.3890000E-02    4.7144691E-05
  1.3925000E-02    4.9401173E-05
  1.3960000E-02    5.1716012E-05
  1.3995000E-02    5.4087759E-05
  1.4030000E-02    5.6513134E-05
  1.4065000E-02    5.8988218E-05
  1.4100000E-02    6.1511506E-05
  1.4135000E-02    6.4082647E-05
  1.4170000E-02    6.6695779E-05
  1.4205000E-02    6.9345231E-05
  1.4240000E-02    7.2030874E-05
  1.4275000E-02    7.4746997E-05
  1.4310000E-02    7.7485871E-05
  1.4345000E-02    8.0247737E-05
  1.4380000E-02    8.3027546E-05
  1.4415000E-02    8.5815278E-05
  1.4450000E-02    8.8609428E-05
  1.4485000E-02    9.1404669E-05
  1.4520000E-02    9.4188632E-05
  1.4555000E-02    9.6958378E-05
  1.4590000E-02    9.9713558E-05
  1.4625000E-02    1.0243917E-04
  1.4660000E-02    1.0512683E-04
  1.4695000E-02    1.0778087E-04
  1.4730000E-02    1.1038870E-04
  1.4765000E-02    1.1293329E-04
  1.4800000E-02    1.1541567E-04
  1.4835000E-02    1.1783284E-04
  1.4870000E-02    1.2017002E-04
  1.4905000E-02    1.2241981E-04
  1.4940000E-02    1.2457775E-04
  1.4975000E-02    1.2663560E-04
  1.5010000E-02    1.2858695E-04
  1.5045000E-02    1.3042249E-04
  1.5080000E-02    1.3213251E-04
  1.5115000E-02    1.3371484E-04
  1.5150000E-02    1.3516344E-04
  1.5185000E-02    1.3646724E-04
  1.5220000E-02    1.3762277E-04
  1.5255000E-02    1.3862601E-04
  1.5290000E-02    1.3946707E-04
  1.5325000E-02    1.4014264E-04
  1.5360000E-02    1.4064930E-04
  1.5395000E-02    1.4097977E-04
  1.5430000E-02    1.4113450E-04
  1.5465000E-02    1.4111040E-04
  1.5500000E-02    1.4089720E-04
  1.5535000E-02    1.4049775E-04
  1.5570000E-02    1.3991546E-04
  1.5605000E-02    1.3914079E-04
  1.5640000E-02    1.3817528E-04
  1.5675001E-02    1.3702759E-04
  1.5710000E-02    1.3568952E-04
  1.5745001E-02    1.3415999E-04
  1.5780000E-02    1.3245123E-04
  1.5814999E-02    1.3056095E-04
  1.5850000E-02    1.2848750E-04
  1.5884999E-02    1.2624428E-04
  1.5920000E-02    1.2383613E-04
  1.5954999E-02    1.2126102E-04
  1.5990000E-02    1.1852895E-04
  1.6024999E-02    1.1564822E-04
  1.6060000E-02    1.1262362E-04
  1.6094999E-02    1.0946560E-04
  1.6130000E-02    1.0617961E-04
  1.6164999E-02    1.0277327E-04
  1.6200000E-02    9.9262266E-05
  1.6235000E-02    9.5656600E-05
  1.6270000E-02    9.1961287E-05
  1.6305000E-02    8.8188506E-05
  1.6340001E-02    8.4348416E-05
  1.6375000E-02    8.0452868E-05
  1.6410001E-02    7.6517732E-05
  1.6445000E-02    7.2550858E-05
  1.6480001E-02    6.8561858E-05
  1.6515000E-02    6.4567284E-05
  1.6550001E-02    6.0576043E-05
  1.6585000E-02    5.6597539E-05
  1.6620001E-02    5.2650601E-05
  1.6655000E-02    4.8743834E-05
  1.6690001E-02    4.4882046E-05
  1.6725000E-02    4.1083633E-05
  1.6759999E-02    3.7360318E-05
  1.6795000E-02    3.3716584E-05
  1.6829999E-02    3.0165726E-05
  1.6865000E-02    2.6717844E-05
  1.6899999E-02    2.3377264E-05
  1.6935000E-02    2.0157286E-05
  1.6969999E-02    1.7067125E-05
  1.7005000E-02    1.4105080E-05
  1.7039999E-02    1.1282140E-05
  1.7075000E-02    8.6106293E-06
  1.7109999E-02    6.0874449E-06
  1.7145000E-02    3.7160412E-06
  1.7180000E-02    1.5038987E-06
  1.7215000E-02   -5.4890143E-07
  1.7250000E-02   -2.4382807E-06
  1.7285001E-02   -4.1611702E-06
  1.7320000E-02   -5.7250918E-06
  1.7355001E-02   -7.1283494E-06
  1.7390000E-02   -8.3646128E-06
  1.7425001E-02   -9.4432098E-06
  1.7460000E-02   -1.0370590E-05
  1.7495001E-02   -1.1142628E-05
  1.7530000E-02   -1.1763990E-05
  1.7565001E-02   -1.2242454E-05
  1.7600000E-02   -1.2582043E-05
  1.7635001E-02   -1.2793575E-05
  1.7670000E-02   -1.2882975E-05
  1.7704999E-02   -1.2848958E-05
  1.7740000E-02   -1.2706516E-05
  1.7774999E-02   -1.2470364E-05
  1.7810000E-02   -1.2134422E-05
  1.7844999E-02   -1.1705730E-05
  1.7880000E-02   -1.1209146E-05
  1.7914999E-02   -1.0648614E-05
  1.7950000E-02   -1.0021423E-05
  1.7984999E-02   -9.3484250E-06
  1.8020000E-02   -8.6442533E-06
  1.8054999E-02   -7.9041374E-06
  1.8090000E-02   -7.1363020E-06
  1.8124999E-02   -6.3592793E-06
  1.8160000E-02   -5.5787264E-06
  1.8195000E-02   -4.7992794E-06
  1.8230001E-02   -4.0313912E-06
  1.8265000E-02   -3.2806136E-06
  1.8300001E-02   -2.5550287E-06
  1.8335000E-02   -1.8660272E-06
  1.8370001E-02   -1.2130354E-06
  1.8405000E-02   -5.9627115E-07
  1.8440001E-02   -2.9471364E-08
  1.8475000E-02    4.8166828E-07
  1.8510001E-02    9.4060249E-07
  1.8545000E-02    1.3397766E-06
  1.8580001E-02    1.6747246E-06
  1.8615000E-02    1.9521892E-06
  1.8650001E-02    2.1666956E-06
  1.8685000E-02    2.3101243E-06
  1.8719999E-02    2.3938976E-06
  1.8755000E-02    2.4215317E-06
  1.8789999E-02    2.3783900E-06
  1.8825000E-02    2.2699428E-06
  1.8859999E-02    2.1142398E-06
  1.8895000E-02    1.9050786E-06
  1.8929999E-02    1.6349145E-06
  1.8965000E-02    1.3194199E-06
  1.8999999E-02    9.6737074E-07
  1.9035000E-02    5.7119371E-07
  1.9069999E-02    1.3470344E-07
  1.9105000E-02   -3.2851855E-07
  1.9140000E-02   -8.1314846E-07
  1.9175000E-02   -1.3181773E-06
  1.9210000E-02   -1.8400107E-06
  1.9245001E-02   -2.3722960E-06
  1.9280000E-02   -2.9070709E-06
  1.9315001E-02   -3.4394222E-06
  1.9350000E-02   -3.9663273E-06
  1.9385001E-02   -4.4810213E-06
  1.9420000E-02   -4.9793121E-06
  1.9455001E-02   -5.4586853E-06
  1.9490000E-02   -5.9122412E-06
  1.9525001E-02   -6.3374196E-06
  1.9560000E-02   -6.7352657E-06
  1.9595001E-02   -7.0971028E-06
  1.9630000E-02   -7.4164886E-06
  1.9664999E-02   -7.6994475E-06
  1.9700000E-02   -7.9442570E-06
  1.9734999E-02   -8.1407416E-06
  1.9770000E-02   -8.2913102E-06
  1.9804999E-02   -8.4028288E-06
  1.9840000E-02   -8.4707635E-06
  1.9874999E-02   -8.4909871E-06
  1.9910000E-02   -8.4694575E-06
  1.9944999E-02   -8.4113944E-06
  1.9980000E-02   -8.3124969E-06
  2.0014999E-02   -8.1696326E-06
  2.0050000E-02   -7.9921692E-06
  2.0085000E-02   -7.7887353E-06
  2.0120000E-02   -7.5558387E-06
  2.0155000E-02   -7.2942298E-06
  2.0190001E-02   -7.0126957E-06
  2.0225000E-02   -6.7131114E-06
  2.0260001E-02   -6.3970438E-06
  2.0295000E-02   -6.0724187E-06
  2.0330001E-02   -5.7419611E-06
  2.0365000E-02   -5.4080278E-06
  2.0400001E-02   -5.0782769E-06
  2.0435000E-02   -4.7547151E-06
  2.0470001E-02   -4.4386029E-06
  2.0505000E-02   -4.1365838E-06
  2.0540001E-02   -3.8507551E-06
  2.0575000E-02   -3.5846763E-06
  2.0609999E-02   -3.3446890E-06
  2.0645000E-02   -3.1286147E-06
  2.0679999E-02   -2.9390246E-06
  2.0715000E-02   -2.7843460E-06
  2.0749999E-02   -2.6607461E-06
  2.0785000E-02   -2.5680827E-06
  2.0819999E-02   -2.5146344E-06
  2.0855000E-02   -2.4940466E-06
  2.0889999E-02   -2.5054567E-06
  2.0925000E-02   -2.5594672E-06
  2.0959999E-02   -2.6442081E-06
  2.0995000E-02   -2.7550341E-06
  2.1029999E-02   -2.9131361E-06
  2.1065000E-02   -3.1065313E-06
  2.1100000E-02   -3.3109543E-06
  2.1135001E-02   -3.5480793E-06
  2.1170000E-02   -3.8247636E-06
  2.1205001E-02   -4.1113053E-06
  2.1240000E-02   -4.4149920E-06
  2.1275001E-02   -4.7520816E-06
  2.1310000E-02   -5.0979029E-06
  2.1345001E-02   -5.4460115E-06
  2.1380000E-02   -5.8137921E-06
  2.1415001E-02   -6.1880610E-06
  2.1450000E-02   -6.5564241E-06
  2.1485001E-02   -6.9293101E-06
  2.1520000E-02   -7.3003639E-06
  2.1555001E-02   -7.6612732E-06
  2.1590000E-02   -8.0212176E-06
  2.1624999E-02   -8.3729719E-06
  2.1660000E-02   -8.7037270E-06
  2.1694999E-02   -9.0227177E-06
  2.1730000E-02   -9.3312001E-06
  2.1764999E-02   -9.6168787E-06
  2.1800000E-02   -9.8850151E-06
  2.1834999E-02   -1.0141563E-05
  2.1870000E-02   -1.0375876E-05
  2.1904999E-02   -1.0587438E-05
  2.1940000E-02   -1.0784813E-05
  2.1974999E-02   -1.0962955E-05
  2.2010000E-02   -1.1118778E-05
  2.2045000E-02   -1.1261345E-05
  2.2080000E-02   -1.1390759E-05
  2.2115000E-02   -1.1502989E-05
  2.2150001E-02   -1.1605187E-05
  2.2185000E-02   -1.1699067E-05
  2.2220001E-02   -1.1777675E-05
  2.2255000E-02   -1.1845998E-05
  2.2290001E-02   -1.1912587E-05
  2.2325000E-02   -1.1975573E-05
  2.2360001E-02   -1.2036431E-05
  2.2395000E-02   -1.2099918E-05
  2.2430001E-02   -1.2162374E-05
  2.2465000E-02   -1.2224161E-05
  2.2500001E-02   -1.2293247E-05
  2.2535000E-02   -1.2368548E-05
  2.2569999E-02   -1.2445714E-05
  2.2605000E-02   -1.2529475E-05
  2.2639999E-02   -1.2623121E-05
  2.2675000E-02   -1.2722942E-05
  2.2709999E-02   -1.2825229E-05
  2.2745000E-02   -1.2927961E-05
  2.2779999E-02   -1.3032625E-05
  2.2815000E-02   -1.3142439E-05
  2.2849999E-02   -1.3251955E-05
  2.2885000E-02   -1.3352532E-05
  2.2919999E-02   -1.3444744E-05
  2.2955000E-02   -1.3529208E-05
  2.2990000E-02   -1.3597923E-05
  2.3025000E-02   -1.3644936E-05
  2.3060000E-02   -1.3668290E-05
  2.3095001E-02   -1.3661805E-05
  2.3130000E-02   -1.3619383E-05
  2.3165001E-02   -1.3538794E-05
  2.3200000E-02   -1.3414890E-05
  2.3235001E-02   -1.3239155E-05
  2.3270000E-02   -1.3005040E-05
  2.3305001E-02   -1.2708363E-05
  2.3340000E-02   -1.2345402E-05
  2.3375001E-02   -1.1909580E-05
  2.3410000E-02   -1.1392799E-05
  2.3445001E-02   -1.0792854E-05
  2.3480000E-02   -1.0108330E-05
  2.3514999E-02   -9.3306699E-06
  2.3550000E-02   -8.4548419E-06
  2.3584999E-02   -7.4830659E-06
  2.3620000E-02   -6.4127994E-06
  2.3654999E-02   -5.2389696E-06
  2.3690000E-02   -3.9604033E-06
  2.3724999E-02   -2.5769666E-06
  2.3760000E-02   -1.0919823E-06
  2.3794999E-02    4.9167073E-07
  2.3830000E-02    2.1759831E-06
  2.3864999E-02    3.9548404E-06
  2.3900000E-02    5.8188239E-06
  2.3934999E-02    7.7705226E-06
  2.3970000E-02    9.8043538E-06
  2.4005000E-02    1.1901742E-05
  2.4040001E-02    1.4058830E-05
  2.4075000E-02    1.6273716E-05
  2.4110001E-02    1.8528170E-05
  2.4145000E-02    2.0811638E-05
  2.4180001E-02    2.3117271E-05
  2.4215000E-02    2.5424237E-05
  2.4250001E-02    2.7719661E-05
  2.4285000E-02    2.9996554E-05
  2.4320001E-02    3.2234271E-05
  2.4355000E-02    3.4418888E-05
  2.4390001E-02    3.6541329E-05
  2.4425000E-02    3.8575577E-05
  2.4460001E-02    4.0504099E-05
  2.4495000E-02    4.2323492E-05
  2.4529999E-02    4.4013083E-05
  2.4565000E-02    4.5550718E-05
  2.4599999E-02    4.6930840E-05
  2.4635000E-02    4.8140446E-05
  2.4669999E-02    4.9159225E-05
  2.4705000E-02    4.9973794E-05
  2.4739999E-02    5.0572591E-05
  2.4775000E-02    5.0947699E-05
  2.4809999E-02    5.1091014E-05
  2.4845000E-02    5.0988128E-05
  2.4879999E-02    5.0634790E-05
  2.4915000E-02    5.0031224E-05
  2.4950000E-02    4.9164893E-05
  2.4985000E-02    4.8030681E-05
  2.5020000E-02    4.6634650E-05
  2.5055001E-02    4.4974247E-05
  2.5090000E-02    4.3050495E-05
  2.5125001E-02    4.0871448E-05
  2.5160000E-02    3.8437454E-05
  2.5195001E-02    3.5754885E-05
  2.5230000E-02    3.2836757E-05
  2.5265001E-02    2.9689127E-05
  2.5300000E-02    2.6326607E-05
  2.5335001E-02    2.2765138E-05
  2.5370000E-02    1.9006500E-05
  2.5405001E-02    1.5069309E-05
  2.5440000E-02    1.0984466E-05
  2.5474999E-02    6.7589281E-06
  2.5510000E-02    2.4037702E-06
  2.5544999E-02   -2.0499185E-06
  2.5580000E-02   -6.5855916E-06
  2.5614999E-02   -1.1189689E-05
  2.5650000E-02   -1.5835401E-05
  2.5684999E-02   -2.0505033E-05
  2.5720000E-02   -2.5177949E-05
  2.5754999E-02   -2.9826257E-05
  2.5790000E-02   -3.4442281E-05
  2.5824999E-02   -3.9012495E-05
  2.5860000E-02   -4.3501728E-05
  2.5895000E-02   -4.7894566E-05
  2.5930000E-02   -5.2182862E-05
  2.5965000E-02   -5.6339744E-05
  2.6000001E-02   -6.0353694E-05
  2.6035000E-02   -6.4220272E-05
  2.6070001E-02   -6.7914087E-05
  2.6105000E-02   -7.1424845E-05
  2.6140001E-02   -7.4755604E-05
  2.6175000E-02   -7.7884957E-05
  2.6210001E-02   -8.0797996E-05
  2.6245000E-02   -8.3502309E-05
  2.6280001E-02   -8.5991691E-05
  2.6315000E-02   -8.8257257E-05
  2.6350001E-02   -9.0302456E-05
  2.6385000E-02   -9.2121183E-05
  2.6419999E-02   -9.3710129E-05
  2.6455000E-02   -9.5079362E-05
  2.6489999E-02   -9.6227996E-05
  2.6525000E-02   -9.7153839E-05
  2.6559999E-02   -9.7868469E-05
  2.6595000E-02   -9.8376266E-05
  2.6629999E-02   -9.8678538E-05
  2.6665000E-02   -9.8786957E-05
  2.6699999E-02   -9.8706740E-05
  2.6735000E-02   -9.8441633E-05
  2.6769999E-02   -9.8007193E-05
  2.6805000E-02   -9.7410230E-05
  2.6839999E-02   -9.6649528E-05
  2.6875000E-02   -9.5739349E-05
  2.6910000E-02   -9.4696050E-05
  2.6945001E-02   -9.3522125E-05
  2.6980000E-02   -9.2222959E-05