 -4.8000002E-03    1.0000000E-24
 -4.7650002E-03    1.0000002E-24
 -4.7300002E-03    1.0000002E-24
 -4.6950001E-03    1.0000001E-24
 -4.6600001E-03    1.0000000E-24
 -4.6250001E-03    1.0000003E-24
 -4.5900000E-03    1.0000001E-24
 -4.5550000E-03    9.9999992E-25
 -4.5200000E-03    1.0000002E-24
 -4.4849999E-03    1.0000001E-24
 -4.4499999E-03    9.9999992E-25
 -4.4149999E-03    9.9999992E-25
 -4.3799998E-03    9.9999992E-25
 -4.3449998E-03    1.0000003E-24
 -4.3100002E-03    1.0000010E-24
 -4.2750002E-03    1.0000003E-24
 -4.2400002E-03    9.9999933E-25
 -4.2050001E-03    1.0000001E-24
 -4.1700001E-03    1.0000003E-24
 -4.1350001E-03    9.9999963E-25
 -4.1000000E-03    1.0000001E-24
 -4.0650000E-03    1.0000001E-24
 -4.0300000E-03    9.9999963E-25
 -3.9949999E-03    1.0000002E-24
 -3.9599999E-03    1.0000001E-24
 -3.9249999E-03    9.9999923E-25
 -3.8900001E-03    1.0000002E-24
 -3.8550000E-03    1.0000007E-24
 -3.8200000E-03    9.9999992E-25
 -3.7849999E-03    1.0000005E-24
 -3.7499999E-03    1.0000010E-24
 -3.7150001E-03    9.9999953E-25
 -3.6800001E-03    9.9999943E-25
 -3.6450000E-03    1.0000009E-24
 -3.6100000E-03    1.0000002E-24
 -3.5750000E-03    9.9999943E-25
 -3.5399999E-03    1.0000006E-24
 -3.5049999E-03    1.0000001E-24
 -3.4700001E-03    9.9999903E-25
 -3.4350001E-03    1.0000006E-24
 -3.4000000E-03    1.0000005E-24
 -3.3650000E-03    9.9999913E-25
 -3.3300000E-03    1.0000004E-24
 -3.2949999E-03    1.0000009E-24
 -3.2599999E-03    9.9999923E-25
 -3.2250001E-03    9.9999972E-25
 -3.1900001E-03    1.0000011E-24
 -3.1550000E-03    9.9999982E-25
 -3.1200000E-03    9.9999943E-25
 -3.0850000E-03    1.0000013E-24
 -3.0499999E-03    1.0000014E-24
 -3.0149999E-03    9.9999933E-25
 -2.9800001E-03    9.9999913E-25
 -2.9450001E-03    1.0000005E-24
 -2.9100000E-03    1.0000002E-24
 -2.8750000E-03    9.9999913E-25
 -2.8400000E-03    1.0000000E-24
 -2.8049999E-03    1.0000016E-24
 -2.7699999E-03    1.0000005E-24
 -2.7350001E-03    9.9999893E-25
 -2.7000001E-03    1.0000002E-24
 -2.6650000E-03    1.0000013E-24
 -2.6300000E-03    9.9999982E-25
 -2.5950000E-03    9.9999903E-25
 -2.5599999E-03    1.0000007E-24
 -2.5249999E-03    1.0000003E-24
 -2.4900001E-03    9.9999933E-25
 -2.4550001E-03    1.0000004E-24
 -2.4200000E-03    1.0000007E-24
 -2.3850000E-03    9.9999963E-25
 -2.3500000E-03    9.9999992E-25
 -2.3149999E-03    1.0000000E-24
 -2.2799999E-03    9.9999923E-25
 -2.2450001E-03    1.0000001E-24
 -2.2100001E-03    1.0000010E-24
 -2.1750000E-03    9.9999982E-25
 -2.1400000E-03    9.9999982E-25
 -2.1050000E-03    1.0000011E-24
 -2.0699999E-03    1.0000004E-24
 -2.0349999E-03    9.9999943E-25
 -2.0000001E-03    1.0000007E-24
 -1.9650001E-03    1.0000006E-24
 -1.9300000E-03    9.9999933E-25
 -1.8950000E-03    9.9999972E-25
 -1.8600000E-03    1.0000001E-24
 -1.8250000E-03    1.0000006E-24
 -1.7900000E-03    1.0000008E-24
 -1.7550000E-03    9.9999913E-25
 -1.7199999E-03    9.9999903E-25
 -1.6850000E-03    1.0000007E-24
 -1.6500000E-03    9.9999953E-25
 -1.6150000E-03    9.9999834E-25
 -1.5800000E-03    1.0000010E-24
 -1.5450000E-03    1.0000018E-24
 -1.5100000E-03    9.9999943E-25
 -1.4750001E-03    1.0000002E-24
 -1.4400000E-03    1.0000011E-24
 -1.4050000E-03    9.9999933E-25
 -1.3700000E-03    1.0000002E-24
 -1.3350000E-03    1.0000012E-24
 -1.3000000E-03    9.9999893E-25
 -1.2650000E-03    9.9999815E-25
 -1.2300001E-03    9.9999992E-25
 -1.1950000E-03    1.0000006E-24
 -1.1600000E-03    1.0000004E-24
 -1.1250000E-03    1.0000007E-24
 -1.0900000E-03    1.0000004E-24
 -1.0550000E-03    1.0000002E-24
 -1.0200000E-03    9.9999972E-25
 -9.8500005E-04    9.9999864E-25
 -9.5000002E-04    9.9999933E-25
 -9.1499998E-04    1.0000005E-24
 -8.8000001E-04    9.9999992E-25
 -8.4499997E-04    1.0000001E-24
 -8.1000000E-04    1.0000015E-24
 -7.7500002E-04    1.0000007E-24
 -7.3999999E-04    9.9999884E-25
 -7.0500001E-04    9.9999972E-25
 -6.6999998E-04    1.0000007E-24
 -6.3500000E-04    1.0000000E-24
 -6.0000003E-04    9.9999982E-25
 -5.6499999E-04    9.9999923E-25
 -5.3000002E-04    9.9999982E-25
 -4.9499999E-04    1.0000027E-24
 -4.6000001E-04    9.9999913E-25
 -4.2500001E-04    9.9999578E-25
 -3.9000000E-04    1.0000080E-24
 -3.5500000E-04    1.0000072E-24
 -3.1999999E-04    9.9997813E-25
 -2.8499999E-04    9.9999460E-25
 -2.5000001E-04    1.0000487E-24
 -2.1499999E-04    9.9998986E-25
 -1.8000000E-04    9.9990792E-25
 -1.4500000E-04    1.0000590E-24
 -1.1000000E-04    1.0001474E-24
 -7.5000004E-05    9.9983988E-25
 -3.9999999E-05    9.9980990E-25
 -4.9999999E-06    1.0003086E-24
  2.9999999E-05    1.0001820E-24
  6.5000000E-05    9.9959208E-25
  9.9999997E-05    9.9985566E-25
  1.3499999E-04    1.0001688E-24
  1.7000000E-04    1.0004022E-24
  2.0500000E-04    1.0009750E-24
  2.3999999E-04    9.9787226E-25
  2.7500000E-04    9.9626861E-25
  3.1000000E-04    1.0083297E-24
  3.4500001E-04    1.0082535E-24
  3.8000001E-04    9.7472748E-25
  4.1499999E-04    9.8758808E-25
  4.4999999E-04    1.0640062E-24
  4.8500000E-04    1.0087623E-24
  5.2000000E-04    8.5870142E-25
  5.5499998E-04    1.0193592E-24
  5.9000001E-04    1.2792077E-24
  6.2499999E-04    8.9953799E-25
  6.6000002E-04    4.9674399E-25
  6.9500000E-04    1.2716592E-24
  7.3000003E-04    1.8415335E-24
  7.6500000E-04    4.3813921E-25
  7.9999998E-04   -3.3104822E-25
  8.3500001E-04    1.9506868E-24
  8.6999999E-04    3.0423048E-24
  9.0500002E-04   -2.8905944E-25
  9.4000000E-04   -2.1351246E-24
  9.7499997E-04    2.1619822E-24
  1.0100000E-03    5.9538571E-24
  1.0450000E-03    1.3388309E-24
  1.0800000E-03   -7.1512182E-24
  1.1150000E-03   -3.9916397E-24
  1.1500000E-03    1.4791221E-23
  1.1849999E-03    1.7076111E-23
  1.2200000E-03   -2.2311403E-23
  1.2550000E-03   -3.8428037E-23
  1.2900000E-03    3.9104671E-23
  1.3250000E-03    8.6138499E-23
  1.3600000E-03   -5.7277758E-23
  1.3950000E-03   -1.6912140E-22
  1.4299999E-03    8.0793342E-23
  1.4650000E-03    3.2260879E-22
  1.5000000E-03   -8.7640339E-23
  1.5350000E-03   -5.8018380E-22
  1.5700000E-03    5.0833288E-23
  1.6050000E-03    1.0089469E-21
  1.6400000E-03    1.1299169E-22
  1.6749999E-03   -1.6764406E-21
  1.7100000E-03   -5.4368273E-22
  1.7450000E-03    2.6705167E-21
  1.7800000E-03    1.5190778E-21
  1.8150000E-03   -4.0316109E-21
  1.8500000E-03   -3.4930383E-21
  1.8850000E-03    5.7043300E-21
  1.9200000E-03    7.2155312E-21
  1.9550000E-03   -7.3475489E-21
  1.9900000E-03   -1.3791167E-20
  2.0250001E-03    8.0855499E-21
  2.0600001E-03    2.4762240E-20
  2.0949999E-03   -6.0132266E-21
  2.1299999E-03   -4.2001895E-20
  2.1650000E-03   -2.4730943E-21
  2.2000000E-03    6.7387102E-20
  2.2350000E-03    2.3680215E-20
  2.2700001E-03   -1.0186606E-19
  2.3050001E-03   -6.7784653E-20
  2.3399999E-03    1.4367097E-19
  2.3749999E-03    1.5007845E-19
  2.4100000E-03   -1.8504830E-19
  2.4450000E-03   -2.9164832E-19
  2.4800000E-03    2.0707712E-19
  2.5150001E-03    5.1861128E-19
  2.5500001E-03   -1.7199077E-19
  2.5849999E-03   -8.5808868E-19
  2.6199999E-03    1.3098298E-20
  2.6550000E-03    1.3284777E-18
  2.6900000E-03    3.7685005E-19
  2.7250000E-03   -1.9204770E-18
  2.7600001E-03   -1.1559585E-18
  2.7950001E-03    2.5649436E-18
  2.8299999E-03    2.5364753E-18
  2.8649999E-03   -3.0840612E-18
  2.9000000E-03   -4.7711927E-18
  2.9350000E-03    3.1245490E-18
  2.9700000E-03    8.1080963E-18
  3.0050001E-03   -2.0772023E-18
  3.0400001E-03   -1.2693307E-17
  3.0749999E-03   -1.0025218E-18
  3.1099999E-03    1.8399223E-17
  3.1450000E-03    7.4430158E-18
  3.1800000E-03   -2.4558043E-17
  3.2150000E-03   -1.8922307E-17
  3.2500001E-03    2.9593181E-17
  3.2850001E-03    3.7274042E-17
  3.3199999E-03   -3.0570395E-17
  3.3549999E-03   -6.4035592E-17
  3.3900000E-03    2.2740385E-17
  3.4250000E-03    9.9625726E-17
  3.4600000E-03    7.7660689E-19
  3.4950001E-03   -1.4206542E-16
  3.5300001E-03   -4.8921480E-17
  3.5649999E-03    1.8521889E-16
  3.5999999E-03    1.3189216E-16
  3.6350000E-03   -2.1667420E-16
  3.6700000E-03   -2.5917676E-16
  3.7050000E-03    2.1561369E-16
  3.7400001E-03    4.3596876E-16
  3.7750001E-03   -1.5135319E-16
  3.8099999E-03   -6.5768376E-16
  3.8449999E-03   -1.6416607E-17
  3.8800000E-03    9.0258687E-16
  3.9149998E-03    3.3429029E-16
  3.9499998E-03   -1.1231922E-15
  3.9849998E-03   -8.4709716E-16
  4.0199999E-03    1.2380056E-15
  4.0549999E-03    1.5837017E-15
  4.0899999E-03   -1.1263070E-15
  4.1250000E-03   -2.5359239E-15
  4.1600000E-03    6.2999171E-16
  4.1950000E-03    3.6313205E-15
  4.2300001E-03    4.3275189E-16
  4.2650001E-03   -4.7030314E-15
  4.3000001E-03   -2.2369698E-15
  4.3350002E-03    5.4628933E-15
  4.3700002E-03    4.8998345E-15
  4.4049998E-03   -5.4876088E-15
  4.4399998E-03   -8.4086672E-15
  4.4749998E-03    4.2307483E-15
  4.5099999E-03    1.2532804E-14
  4.5449999E-03   -1.0751184E-15
  4.5799999E-03   -1.6731852E-14
  4.6150000E-03   -4.5622190E-15
  4.6500000E-03    2.0082729E-14
  4.6850001E-03    1.3064858E-14
  4.7200001E-03   -2.1255487E-14
  4.7550001E-03   -2.4399165E-14
  4.7900002E-03    1.8573466E-14
  4.8250002E-03    3.7863247E-14
  4.8600002E-03   -1.0193632E-14
  4.8949998E-03   -5.1848747E-14
  4.9299998E-03   -5.5697151E-15
  4.9649999E-03    6.3676732E-14
  4.9999999E-03    2.9772815E-14
  5.0349999E-03   -6.9591197E-14
  5.0700000E-03   -6.2256773E-14
  5.1050000E-03    6.4993455E-14
  5.1400000E-03    1.0102246E-13
  5.1750001E-03   -4.4985798E-14
  5.2100001E-03   -1.4169385E-13
  5.2450001E-03    5.2651928E-15
  5.2800002E-03    1.7722897E-13
  5.3150002E-03    5.6683347E-14
  5.3500002E-03   -1.9806125E-13
  5.3849998E-03   -1.4019961E-13
  5.4199998E-03    1.9283253E-13
  5.4549999E-03    2.4007378E-13
  5.4899999E-03   -1.4984013E-13
  5.5249999E-03   -3.4549073E-13
  5.5600000E-03    5.9187749E-14
  5.5950000E-03    4.3963983E-13
  5.6300000E-03    8.4475524E-14
  5.6650001E-03   -5.0037248E-13
  5.7000001E-03   -2.7900636E-13
  5.7350001E-03    5.0214173E-13
  5.7700002E-03    5.1203567E-13
  5.8050002E-03   -4.1942141E-13
  5.8400002E-03   -7.5914578E-13
  5.8749998E-03    2.3142163E-13
  5.9099998E-03    9.8360285E-13
  5.9449999E-03    7.2270111E-14
  5.9799999E-03   -1.1382724E-12
  6.0149999E-03   -4.8586737E-13
  6.0500000E-03    1.1702066E-12
  6.0850000E-03    9.8240405E-13
  6.1200000E-03   -1.0279853E-12
  6.1550001E-03   -1.5109215E-12
  6.1900001E-03    6.7127163E-13
  6.2250001E-03    1.9970121E-12
  6.2600002E-03   -8.1687722E-14
  6.2950002E-03   -2.3477288E-12
  6.3299998E-03   -7.2667637E-13
  6.3649998E-03    2.4614048E-12
  6.3999998E-03    1.6990206E-12
  6.4349999E-03   -2.2422394E-12
  6.4699999E-03   -2.7362737E-12
  6.5049999E-03    1.6183550E-12
  6.5400000E-03    3.6981698E-12
  6.5750000E-03   -5.6107002E-13
  6.6100000E-03   -4.4144627E-12
  6.6450001E-03   -8.9771495E-13
  6.6800001E-03    4.7043910E-12
  6.7150001E-03    2.6536054E-12
  6.7500002E-03   -4.4033809E-12
  6.7850002E-03   -4.5266954E-12
  6.8199998E-03    3.3943987E-12
  6.8549998E-03    6.2705232E-12
  6.8899998E-03   -1.6398065E-12
  6.9249999E-03   -7.5954252E-12
  6.9599999E-03   -7.9268010E-13
  6.9949999E-03    8.2049636E-12
  7.0300000E-03    3.7163948E-12
  7.0650000E-03   -7.8407576E-12
  7.1000000E-03   -6.8281318E-12
  7.1350001E-03    6.3301374E-12
  7.1700001E-03    9.7280300E-12
  7.2050001E-03   -3.6321855E-12
  7.2400002E-03   -1.1958949E-11
  7.2750002E-03   -1.2504402E-13
  7.3099998E-03    1.3067264E-11
  7.3449998E-03    4.6289257E-12
  7.3799998E-03   -1.2676605E-11
  7.4149999E-03   -9.3979043E-12
  7.4499999E-03    1.0558908E-11
  7.4850000E-03    1.3825622E-11
  7.5200000E-03   -6.6903739E-12
  7.5550000E-03   -1.7243838E-11
  7.5900001E-03    1.2925860E-12
  7.6250001E-03    1.9005769E-11
  7.6600001E-03    5.1477646E-12
  7.6950002E-03   -1.8591028E-11
  7.7300002E-03   -1.1899410E-11
  7.7650002E-03    1.5718786E-11
  7.7999998E-03    1.8059738E-11
  7.8349998E-03   -1.0441395E-11
  7.8699999E-03   -2.2677280E-11
  7.9049999E-03    3.1938625E-12
  7.9399999E-03    2.4908034E-11
  7.9750000E-03    5.2224774E-12
  8.0100000E-03   -2.4177689E-11
  8.0450000E-03   -1.3730775E-11
  8.0800001E-03    2.0306524E-11
  8.1150001E-03    2.1119011E-11
  8.1500001E-03   -1.3588466E-11
  8.1850002E-03   -2.6206742E-11
  8.2200002E-03    4.8423010E-12
  8.2550002E-03    2.8086190E-11
  8.2900003E-03    4.6370130E-12
  8.3250003E-03   -2.6421549E-11
  8.3600003E-03   -1.3354227E-11
  8.3950004E-03    2.1602546E-11
  8.4300004E-03    2.0038310E-11
  8.4650004E-03   -1.4576786E-11
  8.5000005E-03   -2.3895236E-11
  8.5349996E-03    6.5681753E-12
  8.5699996E-03    2.4630671E-11
  8.6049996E-03    1.0519349E-12
  8.6399997E-03   -2.2556288E-11
  8.6749997E-03   -6.9643692E-12
  8.7099997E-03    1.8763845E-11
  8.7449998E-03    1.0461209E-11
  8.7799998E-03   -1.4821904E-11
  8.8149998E-03   -1.1893153E-11
  8.8499999E-03    1.1976521E-11
  8.8849999E-03    1.2386702E-11
  8.9199999E-03   -1.0668182E-11
  8.9550000E-03   -1.3252528E-11
  8.9900000E-03    1.0592202E-11
  9.0250000E-03    1.5735149E-11
  9.0600001E-03   -1.0617283E-11
  9.0950001E-03   -2.0616885E-11
  9.1300001E-03    8.7239591E-12
  9.1650002E-03    2.7332631E-11
  9.2000002E-03   -2.8934899E-12
  9.2350002E-03   -3.3753403E-11
  9.2700003E-03   -7.6767776E-12
  9.3050003E-03    3.7107144E-11
  9.3400003E-03    2.2402708E-11
  9.3750004E-03   -3.4532665E-11
  9.4100004E-03   -3.9255776E-11
  9.4450004E-03    2.3309155E-11
  9.4799995E-03    5.3813263E-11
  9.5149996E-03   -2.8709394E-12
  9.5499996E-03   -6.0057105E-11
  9.5849996E-03   -2.2951701E-11
  9.6199997E-03    5.4224809E-11
  9.6549997E-03    4.7786834E-11
  9.6899997E-03   -3.6706159E-11
  9.7249998E-03   -6.6421757E-11
  9.7599998E-03    9.5449941E-12
  9.7949998E-03    7.4243715E-11
  9.8299999E-03    2.3909116E-11
  9.8649999E-03   -6.5895192E-11
  9.8999999E-03   -5.5336784E-11
  9.9350000E-03    4.0405315E-11
  9.9700000E-03    7.3618445E-11
  1.0005000E-02   -5.7314674E-12
  1.0040000E-02   -7.3847491E-11
  1.0075000E-02   -2.7535389E-11
  1.0110000E-02    5.8797682E-11
  1.0145000E-02    5.3529219E-11
  1.0180000E-02   -3.1474972E-11
  1.0215000E-02   -6.7207580E-11
  1.0250000E-02   -4.5672368E-12
  1.0285000E-02    6.1353055E-11
  1.0320000E-02    3.8234391E-11
  1.0355000E-02   -3.5861567E-11
  1.0390000E-02   -5.6443343E-11
  1.0425000E-02    1.6366534E-12
  1.0460000E-02    5.6128720E-11
  1.0495000E-02    3.1319110E-11
  1.0530000E-02   -3.9818288E-11
  1.0565000E-02   -5.7546252E-11
  1.0600000E-02    7.8278252E-12
  1.0635000E-02    6.6792877E-11
  1.0670000E-02    3.1756632E-11
  1.0705000E-02   -5.1166054E-11
  1.0740000E-02   -6.0979125E-11
  1.0775000E-02    1.8854572E-11
  1.0810000E-02    6.9843721E-11
  1.0845000E-02    1.4855311E-11
  1.0880000E-02   -6.3240677E-11
  1.0915000E-02   -4.5762848E-11
  1.0950000E-02    4.2759095E-11
  1.0985000E-02    7.2097869E-11
  1.1020000E-02   -3.1931879E-13
  1.1055000E-02   -6.9769697E-11
  1.1090000E-02   -3.9091008E-11
  1.1125000E-02    4.4057803E-11
  1.1160000E-02    6.2215205E-11
  1.1195000E-02   -1.1618059E-12
  1.1230000E-02   -4.4711571E-11
  1.1265000E-02   -5.3507108E-12
  1.1300000E-02    5.0915945E-11
  1.1335000E-02    4.0076015E-11
  1.1370000E-02   -7.8599635E-12
  1.1405000E-02   -7.7927491E-12
  1.1440000E-02    3.7617513E-11
  1.1475000E-02    5.5741921E-11
  1.1510000E-02    3.9072485E-11
  1.1545000E-02    4.8005700E-11
  1.1580000E-02    8.4947188E-11
  1.1615000E-02    8.8684823E-11
  1.1650000E-02    6.4914407E-11
  1.1685000E-02    9.3302983E-11
  1.1720000E-02    1.7734568E-10
  1.1755000E-02    2.1927338E-10
  1.1790000E-02    1.8985441E-10
  1.1825000E-02    1.9443097E-10
  1.1860000E-02    3.0482641E-10
  1.1895000E-02    4.3868345E-10
  1.1930000E-02    4.8738430E-10
  1.1965000E-02    4.8177823E-10
  1.2000000E-02    5.4674998E-10
  1.2035000E-02    7.3099771E-10
  1.2070000E-02    9.4810471E-10
  1.2105000E-02    1.0910062E-09
  1.2140000E-02    1.1819334E-09
  1.2175000E-02    1.3672614E-09
  1.2210000E-02    1.7201400E-09
  1.2245000E-02    2.1065931E-09
  1.2280000E-02    2.3749687E-09
  1.2315000E-02    2.6329274E-09
  1.2350000E-02    3.1256635E-09
  1.2385000E-02    3.8391832E-09
  1.2420000E-02    4.5035464E-09
  1.2455000E-02    5.0557536E-09
  1.2490000E-02    5.7816734E-09
  1.2525000E-02    6.8579595E-09
  1.2560000E-02    8.0766611E-09
  1.2595000E-02    9.2382964E-09
  1.2630000E-02    1.0516735E-08
  1.2665000E-02    1.2174045E-08
  1.2700000E-02    1.4169087E-08
  1.2735000E-02    1.6328922E-08
  1.2770000E-02    1.8684903E-08
  1.2805000E-02    2.1389917E-08
  1.2840000E-02    2.4513158E-08
  1.2875000E-02    2.8090014E-08
  1.2910000E-02    3.2180331E-08
  1.2945000E-02    3.6764678E-08
  1.2980000E-02    4.1802885E-08
  1.3015000E-02    4.7476753E-08
  1.3050000E-02    5.4088986E-08
  1.3085000E-02    6.1655108E-08
  1.3120000E-02    6.9932469E-08
  1.3155000E-02    7.8989686E-08
  1.3190000E-02    8.9303697E-08
  1.3225000E-02    1.0114448E-07
  1.3260000E-02    1.1434997E-07
  1.3295000E-02    1.2885423E-07
  1.3330000E-02    1.4499207E-07
  1.3365000E-02    1.6312673E-07
  1.3400000E-02    1.8340265E-07
  1.3435000E-02    2.0593522E-07
  1.3470000E-02    2.3088425E-07
  1.3505000E-02    2.5844028E-07
  1.3540000E-02    2.8896321E-07
  1.3575000E-02    3.2292488E-07
  1.3610000E-02    3.6059356E-07
  1.3645000E-02    4.0202141E-07
  1.3680000E-02    4.4747082E-07
  1.3715000E-02    4.9760268E-07
  1.3750000E-02    5.5308681E-07
  1.3785000E-02    6.1406575E-07
  1.3820000E-02    6.8064031E-07
  1.3855000E-02    7.5361208E-07
  1.3890000E-02    8.3379041E-07
  1.3925000E-02    9.2152550E-07
  1.3960000E-02    1.0173090E-06
  1.3995000E-02    1.1218226E-06
  1.4030000E-02    1.2356603E-06
  1.4065000E-02    1.3596574E-06
  1.4100000E-02    1.4947024E-06
  1.4135000E-02    1.6414900E-06
  1.4170000E-02    1.8006313E-06
  1.4205000E-02    1.9729964E-06
  1.4240000E-02    2.1597652E-06
  1.4275000E-02    2.3620657E-06
  1.4310000E-02    2.5806578E-06
  1.4345000E-02    2.8162581E-06
  1.4380000E-02    3.0701588E-06
  1.4415000E-02    3.3439801E-06
  1.4450000E-02    3.6386868E-06
  1.4485000E-02    3.9550046E-06
  1.4520000E-02    4.2944885E-06
  1.4555000E-02    4.6586133E-06
  1.4590000E-02    5.0485405E-06
  1.4625000E-02    5.4662055E-06
  1.4660000E-02    5.9125528E-06
  1.4695000E-02    6.3881057E-06
  1.4730000E-02    6.8954137E-06
  1.4765000E-02    7.4369182E-06
  1.4800000E-02    8.0123291E-06
  1.4835000E-02    8.6236296E-06
  1.4870000E-02    9.2734344E-06
  1.4905000E-02    9.9620211E-06
  1.4940000E-02    1.0691334E-05
  1.4975000E-02    1.1464058E-05
  1.5010000E-02    1.2280166E-05
  1.5045000E-02    1.3141255E-05
  1.5080000E-02    1.4050253E-05
  1.5115000E-02    1.5007850E-05
  1.5150000E-02    1.6015267E-05
  1.5185000E-02    1.7074361E-05
  1.5220000E-02    1.8185925E-05
  1.5255000E-02    1.9351904E-05
  1.5290000E-02    2.0574322E-05
  1.5325000E-02    2.1853009E-05
  1.5360000E-02    2.3188410E-05
  1.5395000E-02    2.4582940E-05
  1.5430000E-02    2.6036820E-05
  1.5465000E-02    2.7552085E-05
  1.5500000E-02    2.9128512E-05
  1.5535000E-02    3.0764186E-05
  1.5570000E-02    3.2462565E-05
  1.5605000E-02    3.4225308E-05
  1.5640000E-02    3.6046593E-05
  1.5675001E-02    3.7929800E-05
  1.5710000E-02    3.9877727E-05
  1.5745001E-02    4.1884279E-05
  1.5780000E-02    4.3950353E-05
  1.5814999E-02    4.6077112E-05
  1.5850000E-02    4.8260670E-05
  1.5884999E-02    5.0499839E-05
  1.5920000E-02    5.2795414E-05
  1.5954999E-02    5.5143268E-05
  1.5990000E-02    5.7540459E-05
  1.6024999E-02    5.9988273E-05
  1.6060000E-02    6.2480169E-05
  1.6094999E-02    6.5012304E-05
  1.6130000E-02    6.7585119E-05
  1.6164999E-02    7.0193149E-05
  1.6200000E-02    7.2832823E-05
  1.6235000E-02    7.5501353E-05
  1.6270000E-02    7.8190889E-05
  1.6305000E-02    8.0899474E-05
  1.6340001E-02    8.3622646E-05
  1.6375000E-02    8.6350934E-05
  1.6410001E-02    8.9082365E-05
  1.6445000E-02    9.1817194E-05
  1.6480001E-02    9.4543386E-05
  1.6515000E-02    9.7248776E-05
  1.6550001E-02    9.9932084E-05
  1.6585000E-02    1.0259202E-04
  1.6620001E-02    1.0521692E-04
  1.6655000E-02    1.0780130E-04
  1.6690001E-02    1.1033932E-04
  1.6725000E-02    1.1282097E-04
  1.6759999E-02    1.1523839E-04
  1.6795000E-02    1.1758818E-04
  1.6829999E-02    1.1986119E-04
  1.6865000E-02    1.2205073E-04
  1.6899999E-02    1.2415393E-04
  1.6935000E-02    1.2615627E-04
  1.6969999E-02    1.2804708E-04
  1.7005000E-02    1.2982992E-04
  1.7039999E-02    1.3149875E-04
  1.7075000E-02    1.3303751E-04
  1.7109999E-02    1.3444381E-04
  1.7145000E-02    1.3571426E-04
  1.7180000E-02    1.3683792E-04
  1.7215000E-02    1.3781303E-04
  1.7250000E-02    1.3863425E-04
  1.7285001E-02    1.3929131E-04
  1.7320000E-02    1.3978450E-04
  1.7355001E-02    1.4011051E-04
  1.7390000E-02    1.4026120E-04
  1.7425001E-02    1.4023890E-04
  1.7460000E-02    1.4003938E-04
  1.7495001E-02    1.3965249E-04
  1.7530000E-02    1.3908398E-04
  1.7565001E-02    1.3833542E-04
  1.7600000E-02    1.3739761E-04
  1.7635001E-02    1.3627813E-04
  1.7670000E-02    1.3497905E-04
  1.7704999E-02    1.3349063E-04
  1.7740000E-02    1.3182213E-04
  1.7774999E-02    1.2998158E-04
  1.7810000E-02    1.2796099E-04
  1.7844999E-02    1.2576974E-04
  1.7880000E-02    1.2341696E-04
  1.7914999E-02    1.2089444E-04
  1.7950000E-02    1.1821621E-04
  1.7984999E-02    1.1539774E-04
  1.8020000E-02    1.1242984E-04
  1.8054999E-02    1.0932271E-04
  1.8090000E-02    1.0609884E-04
  1.8124999E-02    1.0275148E-04
  1.8160000E-02    9.9288736E-05
  1.8195000E-02    9.5733230E-05
  1.8230001E-02    9.2083632E-05
  1.8265000E-02    8.8348199E-05
  1.8300001E-02    8.4551306E-05
  1.8335000E-02    8.0691570E-05
  1.8370001E-02    7.6780059E-05
  1.8405000E-02    7.2839794E-05
  1.8440001E-02    6.8870002E-05
  1.8475000E-02    6.4879903E-05
  1.8510001E-02    6.0897390E-05
  1.8545000E-02    5.6921534E-05
  1.8580001E-02    5.2958079E-05
  1.8615000E-02    4.9036069E-05
  1.8650001E-02    4.5157663E-05
  1.8685000E-02    4.1321589E-05
  1.8719999E-02    3.7558591E-05
  1.8755000E-02    3.3876979E-05
  1.8789999E-02    3.0268871E-05
  1.8825000E-02    2.6756954E-05
  1.8859999E-02    2.3356875E-05
  1.8895000E-02    2.0065529E-05
  1.8929999E-02    1.6890479E-05
  1.8965000E-02    1.3845772E-05
  1.8999999E-02    1.0939483E-05
  1.9035000E-02    8.1747348E-06
  1.9069999E-02    5.5505570E-06
  1.9105000E-02    3.0782032E-06
  1.9140000E-02    7.6689616E-07
  1.9175000E-02   -1.3902854E-06
  1.9210000E-02   -3.3864383E-06
  1.9245001E-02   -5.2109531E-06
  1.9280000E-02   -6.8787062E-06
  1.9315001E-02   -8.3877048E-06
  1.9350000E-02   -9.7258662E-06
  1.9385001E-02   -1.0904298E-05
  1.9420000E-02   -1.1924828E-05
  1.9455001E-02   -1.2778937E-05
  1.9490000E-02   -1.3484151E-05
  1.9525001E-02   -1.4047908E-05
  1.9560000E-02   -1.4458766E-05
  1.9595001E-02   -1.4730952E-05
  1.9630000E-02   -1.4875562E-05
  1.9664999E-02   -1.4886196E-05
  1.9700000E-02   -1.4779609E-05
  1.9734999E-02   -1.4568698E-05
  1.9770000E-02   -1.4246802E-05
  1.9804999E-02   -1.3829013E-05
  1.9840000E-02   -1.3331369E-05
  1.9874999E-02   -1.2749866E-05
  1.9910000E-02   -1.2099330E-05
  1.9944999E-02   -1.1397497E-05
  1.9980000E-02   -1.0639174E-05
  2.0014999E-02   -9.8343044E-06
  2.0050000E-02   -9.0039894E-06
  2.0085000E-02   -8.1488006E-06
  2.0120000E-02   -7.2761491E-06
  2.0155000E-02   -6.4049605E-06
  2.0190001E-02   -5.5365158E-06
  2.0225000E-02   -4.6730170E-06
  2.0260001E-02   -3.8295866E-06
  2.0295000E-02   -3.0112242E-06
  2.0330001E-02   -2.2221120E-06
  2.0365000E-02   -1.4766247E-06
  2.0400001E-02   -7.7863524E-07
  2.0435000E-02   -1.2453191E-07
  2.0470001E-02    4.7595859E-07
  2.0505000E-02    1.0135404E-06
  2.0540001E-02    1.4924968E-06
  2.0575000E-02    1.9108440E-06
  2.0609999E-02    2.2591255E-06
  2.0645000E-02    2.5387194E-06
  2.0679999E-02    2.7521069E-06
  2.0715000E-02    2.8927179E-06
  2.0749999E-02    2.9631881E-06
  2.0785000E-02    2.9725265E-06
  2.0819999E-02    2.9175312E-06
  2.0855000E-02    2.7963490E-06
  2.0889999E-02    2.6138239E-06
  2.0925000E-02    2.3700798E-06
  2.0959999E-02    2.0727175E-06
  2.0995000E-02    1.7323723E-06
  2.1029999E-02    1.3425864E-06
  2.1065000E-02    9.0476226E-07
  2.1100000E-02    4.3638488E-07
  2.1135001E-02   -6.3113887E-08
  2.1170000E-02   -5.9562734E-07
  2.1205001E-02   -1.1421929E-06
  2.1240000E-02   -1.6990041E-06
  2.1275001E-02   -2.2740699E-06
  2.1310000E-02   -2.8523998E-06
  2.1345001E-02   -3.4240329E-06
  2.1380000E-02   -3.9957572E-06
  2.1415001E-02   -4.5563615E-06
  2.1450000E-02   -5.0939962E-06
  2.1485001E-02   -5.6162203E-06
  2.1520000E-02   -6.1169235E-06
  2.1555001E-02   -6.5804347E-06
  2.1590000E-02   -7.0124811E-06
  2.1624999E-02   -7.4152458E-06
  2.1660000E-02   -7.7739651E-06
  2.1694999E-02   -8.0883901E-06
  2.1730000E-02   -8.3675004E-06
  2.1764999E-02   -8.6011114E-06
  2.1800000E-02   -8.7819890E-06
  2.1834999E-02   -8.9228397E-06
  2.1870000E-02   -9.0236226E-06
  2.1904999E-02   -9.0712492E-06
  2.1940000E-02   -9.0716085E-06
  2.1974999E-02   -9.0348376E-06
  2.2010000E-02   -8.9550404E-06
  2.2045000E-02   -8.8324641E-06
  2.2080000E-02   -8.6746541E-06
  2.2115000E-02   -8.4811618E-06
  2.2150001E-02   -8.2565202E-06
  2.2185000E-02   -8.0066438E-06
  2.2220001E-02   -7.7266450E-06
  2.2255000E-02   -7.4225313E-06
  2.2290001E-02   -7.1072695E-06
  2.2325000E-02   -6.7761598E-06
  2.2360001E-02   -6.4309711E-06
  2.2395000E-02   -6.0865409E-06
  2.2430001E-02   -5.7402244E-06
  2.2465000E-02   -5.3899103E-06
  2.2500001E-02   -5.0489434E-06
  2.2535000E-02   -4.7177350E-06
  2.2569999E-02   -4.3954656E-06
  2.2605000E-02   -4.0943619E-06
  2.2639999E-02   -3.8121534E-06
  2.2675000E-02   -3.5459934E-06
  2.2709999E-02   -3.3109393E-06
  2.2745000E-02   -3.1049203E-06
  2.2779999E-02   -2.9189998E-06
  2.2815000E-02   -2.7672863E-06
  2.2849999E-02   -2.6526834E-06
  2.2885000E-02   -2.5642776E-06
  2.2919999E-02   -2.5103220E-06
  2.2955000E-02   -2.4936319E-06
  2.2990000E-02   -2.5044833E-06
  2.3025000E-02   -2.5492684E-06
  2.3060000E-02   -2.6290904E-06
  2.3095001E-02   -2.7342492E-06
  2.3130000E-02   -2.8720983E-06
  2.3165001E-02   -3.0427864E-06
  2.3200000E-02   -3.2320881E-06
  2.3235001E-02   -3.4452892E-06
  2.3270000E-02   -3.6839187E-06
  2.3305001E-02   -3.9342963E-06
  2.3340000E-02   -4.2017805E-06
  2.3375001E-02   -4.4875305E-06
  2.3410000E-02   -4.7744579E-06
  2.3445001E-02   -5.0676485E-06
  2.3480000E-02   -5.3725739E-06
  2.3514999E-02   -5.6719250E-06
  2.3550000E-02   -5.9667614E-06
  2.3584999E-02   -6.2620657E-06
  2.3620000E-02   -6.5417480E-06
  2.3654999E-02   -6.8087288E-06
  2.3690000E-02   -7.0698393E-06
  2.3724999E-02   -7.3072270E-06
  2.3760000E-02   -7.5244175E-06
  2.3794999E-02   -7.7312343E-06
  2.3830000E-02   -7.9052725E-06
  2.3864999E-02   -8.0482032E-06
  2.3900000E-02   -8.1815524E-06
  2.3934999E-02   -8.2852375E-06
  2.3970000E-02   -8.3482500E-06
  2.4005000E-02   -8.3934083E-06
  2.4040001E-02   -8.4122348E-06
  2.4075000E-02   -8.3935793E-06
  2.4110001E-02   -8.3568711E-06
  2.4145000E-02   -8.2948372E-06
  2.4180001E-02   -8.1936723E-06
  2.4215000E-02   -8.0741465E-06
  2.4250001E-02   -7.9363363E-06
  2.4285000E-02   -7.7670202E-06
  2.4320001E-02   -7.5853468E-06
  2.4355000E-02   -7.3929709E-06
  2.4390001E-02   -7.1723562E-06
  2.4425000E-02   -6.9388952E-06
  2.4460001E-02   -6.7006031E-06
  2.4495000E-02   -6.4444043E-06
  2.4529999E-02   -6.1854471E-06
  2.4565000E-02   -5.9340114E-06
  2.4599999E-02   -5.6738581E-06
  2.4635000E-02   -5.4117395E-06
  2.4669999E-02   -5.1594861E-06
  2.4705000E-02   -4.9095597E-06
  2.4739999E-02   -4.6705391E-06
  2.4775000E-02   -4.4484445E-06
  2.4809999E-02   -4.2301917E-06
  2.4845000E-02   -4.0256177E-06
  2.4879999E-02   -3.8477660E-06
  2.4915000E-02   -3.6852862E-06
  2.4950000E-02   -3.5424828E-06
  2.4985000E-02   -3.4280160E-06
  2.5020000E-02   -3.3278168E-06
  2.5055001E-02   -3.2464291E-06
  2.5090000E-02   -3.1993791E-06
  2.5125001E-02   -3.1756481E-06
  2.5160000E-02   -3.1717641E-06
  2.5195001E-02   -3.1987213E-06
  2.5230000E-02   -3.2499684E-06
  2.5265001E-02   -3.3230447E-06
  2.5300000E-02   -3.4262243E-06
  2.5335001E-02   -3.5529195E-06
  2.5370000E-02   -3.6986401E-06
  2.5405001E-02   -3.8706571E-06
  2.5440000E-02   -4.0678838E-06
  2.5474999E-02   -4.2869920E-06
  2.5510000E-02   -4.5286429E-06
  2.5544999E-02   -4.7918511E-06
  2.5580000E-02   -5.0759922E-06
  2.5614999E-02   -5.3759968E-06
  2.5650000E-02   -5.6913887E-06
  2.5684999E-02   -6.0326447E-06
  2.5720000E-02   -6.3937105E-06
  2.5754999E-02   -6.7639448E-06
  2.5790000E-02   -7.1571721E-06
  2.5824999E-02   -7.5746752E-06
  2.5860000E-02   -8.0009368E-06
  2.5895000E-02   -8.4458597E-06
  2.5930000E-02   -8.9155383E-06
  2.5965000E-02   -9.3965946E-06
  2.6000001E-02   -9.8975506E-06
  2.6035000E-02   -1.0425261E-05
  2.6070001E-02   -1.0966534E-05
  2.6105000E-02   -1.1530333E-05
  2.6140001E-02   -1.2125330E-05
  2.6175000E-02   -1.2736207E-05
  2.6210001E-02   -1.3368530E-05
  2.6245000E-02   -1.4033453E-05
  2.6280001E-02   -1.4718581E-05
  2.6315000E-02   -1.5428193E-05
  2.6350001E-02   -1.6173182E-05
  2.6385000E-02   -1.6941416E-05
  2.6419999E-02   -1.7733679E-05
  2.6455000E-02   -1.8561357E-05
  2.6489999E-02   -1.9418045E-05
  2.6525000E-02   -2.0300078E-05
  2.6559999E-02   -2.1205222E-05
  2.6595000E-02   -2.2129136E-05
  2.6629999E-02   -2.3084658E-05
  2.6665000E-02   -2.4069128E-05
  2.6699999E-02   -2.5060823E-05
  2.6735000E-02   -2.6069223E-05
  2.6769999E-02   -2.7099102E-05
  2.6805000E-02   -2.8123761E-05
  2.6839999E-02   -2.9148961E-05
  2.6875000E-02   -3.0188256E-05
  2.6910000E-02   -3.1212468E-05
  2.6945001E-02   -3.2214091E-05
  2.6980000E-02   -3.3208806E-05