 -4.8000002E-03    1.0000000E-24
 -4.7650002E-03    1.0000002E-24
 -4.7300002E-03    1.0000002E-24
 -4.6950001E-03    1.0000000E-24
 -4.6600001E-03    1.0000001E-24
 -4.6250001E-03    1.0000004E-24
 -4.5900000E-03    1.0000001E-24
 -4.5550000E-03    9.9999972E-25
 -4.5200000E-03    1.0000004E-24
 -4.4849999E-03    1.0000004E-24
 -4.4499999E-03    9.9999943E-25
 -4.4149999E-03    1.0000001E-24
 -4.3799998E-03    1.0000010E-24
 -4.3449998E-03    9.9999982E-25
 -4.3100002E-03    9.9999943E-25
 -4.2750002E-03    1.0000008E-24
 -4.2400002E-03    1.0000003E-24
 -4.2050001E-03    9.9999903E-25
 -4.1700001E-03    1.0000007E-24
 -4.1350001E-03    1.0000011E-24
 -4.1000000E-03    9.9999923E-25
 -4.0650000E-03    9.9999953E-25
 -4.0300000E-03    1.0000005E-24
 -3.9949999E-03    9.9999972E-25
 -3.9599999E-03    9.9999982E-25
 -3.9249999E-03    1.0000008E-24
 -3.8900001E-03    1.0000002E-24
 -3.8550000E-03    9.9999903E-25
 -3.8200000E-03    1.0000000E-24
 -3.7849999E-03    1.0000006E-24
 -3.7499999E-03    1.0000003E-24
 -3.7150001E-03    1.0000005E-24
 -3.6800001E-03    1.0000004E-24
 -3.6450000E-03    9.9999972E-25
 -3.6100000E-03    9.9999982E-25
 -3.5750000E-03    1.0000002E-24
 -3.5399999E-03    9.9999943E-25
 -3.5049999E-03    9.9999963E-25
 -3.4700001E-03    1.0000006E-24
 -3.4350001E-03    1.0000004E-24
 -3.4000000E-03    9.9999953E-25
 -3.3650000E-03    1.0000004E-24
 -3.3300000E-03    1.0000013E-24
 -3.2949999E-03    9.9999992E-25
 -3.2599999E-03    9.9999893E-25
 -3.2250001E-03    1.0000002E-24
 -3.1900001E-03    1.0000005E-24
 -3.1550000E-03    9.9999953E-25
 -3.1200000E-03    1.0000000E-24
 -3.0850000E-03    1.0000006E-24
 -3.0499999E-03    9.9999982E-25
 -3.0149999E-03    9.9999972E-25
 -2.9800001E-03    1.0000007E-24
 -2.9450001E-03    1.0000007E-24
 -2.9100000E-03    9.9999972E-25
 -2.8750000E-03    9.9999953E-25
 -2.8400000E-03    1.0000006E-24
 -2.8049999E-03    1.0000009E-24
 -2.7699999E-03    9.9999972E-25
 -2.7350001E-03    9.9999903E-25
 -2.7000001E-03    1.0000000E-24
 -2.6650000E-03    1.0000003E-24
 -2.6300000E-03    9.9999972E-25
 -2.5950000E-03    1.0000002E-24
 -2.5599999E-03    1.0000009E-24
 -2.5249999E-03    1.0000002E-24
 -2.4900001E-03    9.9999992E-25
 -2.4550001E-03    1.0000000E-24
 -2.4200000E-03    9.9999953E-25
 -2.3850000E-03    9.9999982E-25
 -2.3500000E-03    1.0000014E-24
 -2.3149999E-03    1.0000006E-24
 -2.2799999E-03    9.9999824E-25
 -2.2450001E-03    9.9999933E-25
 -2.2100001E-03    1.0000016E-24
 -2.1750000E-03    1.0000003E-24
 -2.1400000E-03    9.9999834E-25
 -2.1050000E-03    1.0000002E-24
 -2.0699999E-03    1.0000023E-24
 -2.0349999E-03    1.0000008E-24
 -2.0000001E-03    9.9999864E-25
 -1.9650001E-03    9.9999972E-25
 -1.9300000E-03    1.0000008E-24
 -1.8950000E-03    9.9999903E-25
 -1.8600000E-03    9.9999854E-25
 -1.8250000E-03    1.0000006E-24
 -1.7900000E-03    1.0000018E-24
 -1.7550000E-03    1.0000011E-24
 -1.7199999E-03    9.9999992E-25
 -1.6850000E-03    9.9999923E-25
 -1.6500000E-03    9.9999953E-25
 -1.6150000E-03    1.0000001E-24
 -1.5800000E-03    1.0000009E-24
 -1.5450000E-03    1.0000013E-24
 -1.5100000E-03    9.9999963E-25
 -1.4750001E-03    9.9999834E-25
 -1.4400000E-03    1.0000004E-24
 -1.4050000E-03    1.0000009E-24
 -1.3700000E-03    9.9999864E-25
 -1.3350000E-03    1.0000000E-24
 -1.3000000E-03    1.0000025E-24
 -1.2650000E-03    9.9999982E-25
 -1.2300001E-03    9.9999716E-25
 -1.1950000E-03    1.0000000E-24
 -1.1600000E-03    1.0000015E-24
 -1.1250000E-03    9.9999972E-25
 -1.0900000E-03    9.9999972E-25
 -1.0550000E-03    1.0000012E-24
 -1.0200000E-03    1.0000013E-24
 -9.8500005E-04    1.0000008E-24
 -9.5000002E-04    9.9999992E-25
 -9.1499998E-04    9.9999874E-25
 -8.8000001E-04    9.9999982E-25
 -8.4499997E-04    1.0000007E-24
 -8.1000000E-04    1.0000003E-24
 -7.7500002E-04    1.0000003E-24
 -7.3999999E-04    1.0000001E-24
 -7.0500001E-04    9.9999982E-25
 -6.6999998E-04    9.9999982E-25
 -6.3500000E-04    9.9999893E-25
 -6.0000003E-04    9.9999864E-25
 -5.6499999E-04    1.0000006E-24
 -5.3000002E-04    1.0000020E-24
 -4.9499999E-04    1.0000006E-24
 -4.6000001E-04    9.9999992E-25
 -4.2500001E-04    1.0000001E-24
 -3.9000000E-04    9.9999992E-25
 -3.5500000E-04    1.0000003E-24
 -3.1999999E-04    1.0000004E-24
 -2.8499999E-04    1.0000000E-24
 -2.5000001E-04    1.0000000E-24
 -2.1499999E-04    1.0000007E-24
 -1.8000000E-04    1.0000000E-24
 -1.4500000E-04    9.9999893E-25
 -1.1000000E-04    9.9999972E-25
 -7.5000004E-05    1.0000017E-24
 -3.9999999E-05    1.0000006E-24
 -4.9999999E-06    9.9999864E-25
  2.9999999E-05    9.9999972E-25
  6.5000000E-05    1.0000008E-24
  9.9999997E-05    9.9999972E-25
  1.3499999E-04    9.9999982E-25
  1.7000000E-04    1.0000007E-24
  2.0500000E-04    1.0000000E-24
  2.3999999E-04    1.0000004E-24
  2.7500000E-04    1.0000008E-24
  3.1000000E-04    9.9999834E-25
  3.4500001E-04    9.9999933E-25
  3.8000001E-04    1.0000024E-24
  4.1499999E-04    1.0000002E-24
  4.4999999E-04    9.9999874E-25
  4.8500000E-04    1.0000015E-24
  5.2000000E-04    1.0000006E-24
  5.5499998E-04    9.9999824E-25
  5.9000001E-04    1.0000001E-24
  6.2499999E-04    1.0000012E-24
  6.6000002E-04    9.9999992E-25
  6.9500000E-04    1.0000003E-24
  7.3000003E-04    1.0000003E-24
  7.6500000E-04    9.9999923E-25
  7.9999998E-04    9.9999677E-25
  8.3500001E-04    1.0000019E-24
  8.6999999E-04    1.0000022E-24
  9.0500002E-04    9.9999026E-25
  9.4000000E-04    1.0000087E-24
  9.7499997E-04    1.0000073E-24
  1.0100000E-03    9.9999055E-25
  1.0450000E-03    1.0000062E-24
  1.0800000E-03    1.0000285E-24
  1.1150000E-03    1.0000498E-24
  1.1500000E-03    1.0000285E-24
  1.1849999E-03    9.9992449E-25
  1.2200000E-03    9.9996590E-25
  1.2550000E-03    1.0001203E-24
  1.2900000E-03    9.9989569E-25
  1.3250000E-03    9.9976593E-25
  1.3600000E-03    9.9998907E-25
  1.3950000E-03    9.9991857E-25
  1.4299999E-03    9.9973792E-25
  1.4650000E-03    1.0002986E-24
  1.5000000E-03    9.9976514E-25
  1.5350000E-03    9.9905920E-25
  1.5700000E-03    1.0000553E-24
  1.6050000E-03    1.0003643E-24
  1.6400000E-03    9.9929468E-25
  1.6749999E-03    9.9566641E-25
  1.7100000E-03    1.0009931E-24
  1.7450000E-03    1.0036542E-24
  1.7800000E-03    9.9478792E-25
  1.8150000E-03    9.8934695E-25
  1.8500000E-03    1.0051388E-24
  1.8850000E-03    1.0064773E-24
  1.9200000E-03    9.8379504E-25
  1.9550000E-03    9.8605533E-25
  1.9900000E-03    1.0334384E-24
  2.0250001E-03    1.0359541E-24
  2.0600001E-03    9.6475194E-25
  2.0949999E-03    9.6775681E-25
  2.1299999E-03    9.9429754E-25
  2.1650000E-03    8.9759503E-25
  2.2000000E-03    1.2206370E-24
  2.2350000E-03    1.1148838E-24
  2.2700001E-03    8.7433063E-25
  2.3050001E-03    9.4192250E-25
  2.3399999E-03    8.5925747E-25
  2.3749999E-03    1.3732725E-24
  2.4100000E-03    1.3900818E-24
  2.4450000E-03    9.8339647E-25
  2.4800000E-03    1.3468596E-24
  2.5150001E-03    6.0918280E-25
  2.5500001E-03   -1.3439044E-24
  2.5849999E-03    7.0131342E-25
  2.6199999E-03    1.3769168E-24
  2.6550000E-03    5.0209803E-25
  2.6900000E-03    1.5850867E-24
  2.7250000E-03    5.2183504E-24
  2.7600001E-03   -5.1323705E-24
  2.7950001E-03   -3.8557064E-24
  2.8299999E-03    2.3557929E-24
  2.8649999E-03    5.4934132E-24
  2.9000000E-03   -1.1764061E-24
  2.9350000E-03    1.2461850E-23
  2.9700000E-03    1.3480572E-24
  3.0050001E-03   -3.0495864E-23
  3.0400001E-03    5.0457129E-24
  3.0749999E-03    4.9617313E-23
  3.1099999E-03   -1.6717760E-23
  3.1450000E-03    1.2981395E-25
  3.1800000E-03    2.2264329E-23
  3.2150000E-03    6.6454204E-23
  3.2500001E-03    3.1239384E-23
  3.2850001E-03   -1.2970847E-22
  3.3199999E-03    4.4778790E-23
  3.3549999E-03    2.6128474E-23
  3.3900000E-03   -7.1126306E-23
  3.4250000E-03   -9.0704281E-23
  3.4600000E-03   -1.0049941E-22
  3.4950001E-03    1.7691597E-22
  3.5300001E-03   -6.7112449E-23
  3.5649999E-03    3.2007100E-23
  3.5999999E-03    6.5359956E-22
  3.6350000E-03   -2.2584146E-22
  3.6700000E-03   -5.9557297E-22
  3.7050000E-03   -3.9687158E-22
  3.7400001E-03    1.0382273E-22
  3.7750001E-03    3.5020012E-22
  3.8099999E-03   -7.7092945E-22
  3.8449999E-03   -6.8705276E-22
  3.8800000E-03   -4.2536506E-22
  3.9149998E-03    2.0368145E-21
  3.9499998E-03    2.6566606E-21
  3.9849998E-03   -5.8694313E-21
  4.0199999E-03   -3.2979713E-21
  4.0549999E-03    6.0434704E-21
  4.0899999E-03    8.3921278E-21
  4.1250000E-03   -1.5417613E-21
  4.1600000E-03   -5.2686045E-21
  4.1950000E-03   -2.6478803E-21
  4.2300001E-03    7.9298808E-21
  4.2650001E-03    1.4643785E-20
  4.3000001E-03   -1.8863550E-20
  4.3350002E-03   -2.7477163E-20
  4.3700002E-03    2.2319569E-20
  4.4049998E-03    3.3330083E-20
  4.4399998E-03   -1.5202318E-20
  4.4749998E-03   -2.8752737E-20
  4.5099999E-03    2.5160243E-21
  4.5449999E-03    1.6762337E-20
  4.5799999E-03    2.9357506E-20
  4.6150000E-03   -5.7191190E-20
  4.6500000E-03   -3.9449762E-20
  4.6850001E-03    7.3345220E-20
  4.7200001E-03    1.4982005E-19
  4.7550001E-03   -4.7386757E-20
  4.7900002E-03   -1.5687770E-19
  4.8250002E-03    1.4377534E-19
  4.8600002E-03    2.9901956E-19
  4.8949998E-03   -2.2653931E-20
  4.9299998E-03   -3.5660271E-19
  4.9649999E-03   -1.1451615E-19
  4.9999999E-03    4.4611815E-19
  5.0349999E-03    1.3827810E-19
  5.0700000E-03   -2.5984703E-19
  5.1050000E-03   -1.6848574E-19
  5.1400000E-03   -5.0092685E-20
  5.1750001E-03    5.5208174E-19
  5.2100001E-03    1.9787915E-19
  5.2450001E-03   -9.6710452E-19
  5.2800002E-03   -6.6482372E-19
  5.3150002E-03    1.4358014E-18
  5.3500002E-03    1.1721520E-18
  5.3849998E-03   -1.9429155E-18
  5.4199998E-03   -1.6522671E-18
  5.4549999E-03    9.9180010E-19
  5.4899999E-03    2.3081191E-18
  5.5249999E-03    4.2789890E-19
  5.5600000E-03   -3.3464847E-18
  5.5950000E-03   -2.5871428E-18
  5.6300000E-03    2.8259312E-18
  5.6650001E-03    2.3709850E-18
  5.7000001E-03   -3.5772290E-18
  5.7350001E-03   -2.5621603E-18
  5.7700002E-03    3.5870969E-18
  5.8050002E-03    4.2842174E-18
  5.8400002E-03   -2.4943669E-18
  5.8749998E-03   -8.2883572E-18
  5.9099998E-03    1.0247879E-18
  5.9449999E-03    1.2769638E-17
  5.9799999E-03    1.8821179E-19
  6.0149999E-03   -1.1674748E-17
  6.0500000E-03   -3.1997379E-18
  6.0850000E-03    8.3750424E-18
  6.1200000E-03    7.7946974E-18
  6.1550001E-03   -1.0334107E-17
  6.1900001E-03   -9.0163812E-18
  6.2250001E-03    1.2039843E-17
  6.2600002E-03    1.9781607E-17
  6.2950002E-03   -8.1048621E-18
  6.3299998E-03   -4.2891767E-17
  6.3649998E-03   -2.1026240E-18
  6.3999998E-03    5.6456374E-17
  6.4349999E-03    2.1758561E-17
  6.4699999E-03   -6.5195233E-17
  6.5049999E-03   -3.8941400E-17
  6.5400000E-03    7.5976771E-17
  6.5750000E-03    6.6196909E-17
  6.6100000E-03   -6.8173321E-17
  6.6450001E-03   -9.4909215E-17
  6.6800001E-03    5.9068637E-17
  6.7150001E-03    1.4823466E-16
  6.7500002E-03   -9.4061512E-18
  6.7850002E-03   -2.0170460E-16
  6.8199998E-03   -5.3183832E-17
  6.8549998E-03    2.5213749E-16
  6.8899998E-03    1.6610622E-16
  6.9249999E-03   -2.5876526E-16
  6.9599999E-03   -3.2739150E-16
  6.9949999E-03    1.9854357E-16
  7.0300000E-03    5.2620138E-16
  7.0650000E-03   -3.6930448E-17
  7.1000000E-03   -7.3188798E-16
  7.1350001E-03   -2.3510178E-16
  7.1700001E-03    8.2226427E-16
  7.2050001E-03    6.0434297E-16
  7.2400002E-03   -7.6405495E-16
  7.2750002E-03   -1.0636220E-15
  7.3099998E-03    5.7153437E-16
  7.3449998E-03    1.5803535E-15
  7.3799998E-03   -1.0528116E-16
  7.4149999E-03   -2.0310472E-15
  7.4499999E-03   -6.6830693E-16
  7.4850000E-03    2.2386081E-15
  7.5200000E-03    1.6819865E-15
  7.5550000E-03   -2.0045858E-15
  7.5900001E-03   -2.8059853E-15
  7.6250001E-03    1.2760337E-15
  7.6600001E-03    3.9015189E-15
  7.6950002E-03    3.8933906E-17
  7.7300002E-03   -4.6872440E-15
  7.7650002E-03   -2.0056177E-15
  7.7999998E-03    4.8549794E-15
  7.8349998E-03    4.3869395E-15
  7.8699999E-03   -3.9356890E-15
  7.9049999E-03   -6.7133032E-15
  7.9399999E-03    1.9043977E-15
  7.9750000E-03    8.6613007E-15
  8.0100000E-03    1.3220275E-15
  8.0450000E-03   -9.6073272E-15
  8.0800001E-03   -5.4298306E-15
  8.1150001E-03    9.0163151E-15
  8.1500001E-03    9.8610280E-15
  8.1850002E-03   -6.4710005E-15
  8.2200002E-03   -1.3859766E-14
  8.2550002E-03    1.9420469E-15
  8.2900003E-03    1.6593997E-14
  8.3250003E-03    4.2368050E-15
  8.3600003E-03   -1.7271452E-14
  8.3950004E-03   -1.1529980E-14
  8.4300004E-03    1.5131602E-14
  8.4650004E-03    1.8697668E-14
  8.5000005E-03   -1.0001320E-14
  8.5349996E-03   -2.4518478E-14
  8.5699996E-03    2.0634282E-15
  8.6049996E-03    2.7528086E-14
  8.6399997E-03    7.4761932E-15
  8.6749997E-03   -2.7175241E-14
  8.7099997E-03   -1.7345715E-14
  8.7449998E-03    2.3078426E-14
  8.7799998E-03    2.5696364E-14
  8.8149998E-03   -1.6106619E-14
  8.8499999E-03   -3.1537066E-14
  8.8849999E-03    7.1404835E-15
  8.9199999E-03    3.3837221E-14
  8.9550000E-03    1.6367317E-15
  8.9900000E-03   -3.3111091E-14
  9.0250000E-03   -8.8536974E-15
  9.0600001E-03    3.0311365E-14
  9.0950001E-03    1.3146523E-14
  9.1300001E-03   -2.7774476E-14
  9.1650002E-03   -1.5050336E-14
  9.2000002E-03    2.7607140E-14
  9.2350002E-03    1.6501340E-14
  9.2700003E-03   -3.1172462E-14
  9.3050003E-03   -2.1093980E-14
  9.3400003E-03    3.7584831E-14
  9.3750004E-03    3.2898882E-14
  9.4100004E-03   -4.3065032E-14
  9.4450004E-03   -5.4900369E-14
  9.4799995E-03    4.0634800E-14
  9.5149996E-03    8.6985019E-14
  9.5499996E-03   -2.1137016E-14
  9.5849996E-03   -1.2398935E-13
  9.6199997E-03   -2.4531702E-14
  9.6549997E-03    1.5372012E-13
  9.6899997E-03    1.0062088E-13
  9.7249998E-03   -1.5878675E-13
  9.7599998E-03   -2.0366598E-13
  9.7949998E-03    1.1955272E-13
  9.8299999E-03    3.1932427E-13
  9.8649999E-03   -1.8931051E-14
  9.8999999E-03   -4.2021616E-13
  9.9350000E-03   -1.4938886E-13
  9.9700000E-03    4.6953739E-13
  1.0005000E-02    3.7323318E-13
  1.0040000E-02   -4.3052958E-13
  1.0075000E-02   -6.2019780E-13
  1.0110000E-02    2.7500073E-13
  1.0145000E-02    8.3649065E-13
  1.0180000E-02    2.3273520E-15
  1.0215000E-02   -9.5648630E-13
  1.0250000E-02   -3.7544661E-13
  1.0285000E-02    9.1521398E-13
  1.0320000E-02    7.8128969E-13
  1.0355000E-02   -6.6840007E-13
  1.0390000E-02   -1.1229680E-12
  1.0425000E-02    2.1412074E-13
  1.0460000E-02    1.2863350E-12
  1.0495000E-02    3.9072055E-13
  1.0530000E-02   -1.1689990E-12
  1.0565000E-02   -1.0267334E-12
  1.0600000E-02    7.1601058E-13
  1.0635000E-02    1.5302267E-12
  1.0670000E-02    5.0950946E-14
  1.0705000E-02   -1.7241933E-12
  1.0740000E-02   -1.0152830E-12
  1.0775000E-02    1.4643408E-12
  1.0810000E-02    1.9659109E-12
  1.0845000E-02   -6.9589722E-13
  1.0880000E-02   -2.6297293E-12
  1.0915000E-02   -4.9689772E-13
  1.0950000E-02    2.7386804E-12
  1.0985000E-02    1.8690221E-12
  1.1020000E-02   -2.1242274E-12
  1.1055000E-02   -3.0544224E-12
  1.1090000E-02    7.9386617E-13
  1.1125000E-02    3.6491591E-12
  1.1160000E-02    1.0278312E-12
  1.1195000E-02   -3.3254736E-12
  1.1230000E-02   -2.9150480E-12
  1.1265000E-02    1.9497158E-12
  1.1300000E-02    4.3200070E-12
  1.1335000E-02    3.2785363E-13
  1.1370000E-02   -4.7212781E-12
  1.1405000E-02   -3.0635804E-12
  1.1440000E-02    3.7910660E-12
  1.1475000E-02    5.6110802E-12
  1.1510000E-02   -1.5184572E-12
  1.1545000E-02   -7.2725883E-12
  1.1580000E-02   -1.7556638E-12
  1.1615000E-02    7.4722077E-12
  1.1650000E-02    5.3823439E-12
  1.1685000E-02   -5.9299688E-12
  1.1720000E-02   -8.5719955E-12
  1.1755000E-02    2.7203110E-12
  1.1790000E-02    1.0561665E-11
  1.1825000E-02    1.7314516E-12
  1.1860000E-02   -1.0739140E-11
  1.1895000E-02   -6.6951765E-12
  1.1930000E-02    8.7353918E-12
  1.1965000E-02    1.1207078E-11
  1.2000000E-02   -4.6170290E-12
  1.2035000E-02   -1.4337739E-11
  1.2070000E-02   -1.1070168E-12
  1.2105000E-02    1.5342916E-11
  1.2140000E-02    7.5853811E-12
  1.2175000E-02   -1.3847585E-11
  1.2210000E-02   -1.3754281E-11
  1.2245000E-02    9.9609643E-12
  1.2280000E-02    1.8405081E-11
  1.2315000E-02   -4.1694963E-12
  1.2350000E-02   -2.0473083E-11
  1.2385000E-02   -2.4844022E-12
  1.2420000E-02    1.9280081E-11
  1.2455000E-02    8.2811171E-12
  1.2490000E-02   -1.5212043E-11
  1.2525000E-02   -1.1808219E-11
  1.2560000E-02    9.4774119E-12
  1.2595000E-02    1.2539170E-11
  1.2630000E-02   -3.4407973E-12
  1.2665000E-02   -1.0241159E-11
  1.2700000E-02   -1.2948294E-12
  1.2735000E-02    4.8284089E-12
  1.2770000E-02    3.0602289E-12
  1.2805000E-02    1.0732383E-12
  1.2840000E-02   -2.8634133E-12
  1.2875000E-02   -4.1136391E-12
  1.2910000E-02    3.2424087E-12
  1.2945000E-02    6.1421831E-12
  1.2980000E-02   -4.4409212E-12
  1.3015000E-02   -9.3370398E-12
  1.3050000E-02    4.7498342E-12
  1.3085000E-02    1.3414493E-11
  1.3120000E-02   -6.0084971E-12
  1.3155000E-02   -1.9832769E-11
  1.3190000E-02    8.5030949E-12
  1.3225000E-02    3.0837107E-11
  1.3260000E-02   -9.3904624E-12
  1.3295000E-02   -4.4393475E-11
  1.3330000E-02    2.5244516E-12
  1.3365000E-02    5.7893648E-11
  1.3400000E-02    8.5118206E-12
  1.3435000E-02   -5.7440441E-11
  1.3470000E-02   -1.3911983E-11
  1.3505000E-02    5.0323634E-11
  1.3540000E-02    6.8835237E-12
  1.3575000E-02   -5.2817785E-11
  1.3610000E-02   -4.0305099E-12
  1.3645000E-02    6.2435043E-11
  1.3680000E-02    6.9284890E-12
  1.3715000E-02   -6.4393720E-11
  1.3750000E-02    2.3422182E-12
  1.3785000E-02    6.3140645E-11
  1.3820000E-02   -3.3668946E-11
  1.3855000E-02   -7.8794950E-11
  1.3890000E-02    3.9192569E-11
  1.3925000E-02    7.4292836E-11
  1.3960000E-02   -1.9848874E-11
  1.3995000E-02   -5.6762657E-11
  1.4030000E-02    1.1005969E-11
  1.4065000E-02    4.9234172E-11
  1.4100000E-02   -7.2302268E-12
  1.4135000E-02   -3.3684441E-11
  1.4170000E-02   -3.1838834E-11
  1.4205000E-02    4.5717954E-11
  1.4240000E-02    5.1209117E-11
  1.4275000E-02   -5.9331685E-11
  1.4310000E-02   -2.1490899E-11
  1.4345000E-02    1.2268894E-10
  1.4380000E-02   -1.2358701E-11
  1.4415000E-02   -1.4571311E-10
  1.4450000E-02    4.5031510E-11
  1.4485000E-02    9.1829044E-11
  1.4520000E-02   -1.5235171E-10
  1.4555000E-02   -7.5852720E-11
  1.4590000E-02    2.0159178E-10
  1.4625000E-02    8.7801356E-11
  1.4660000E-02   -7.6838778E-11
  1.4695000E-02    5.9725176E-11
  1.4730000E-02    6.7021264E-11
  1.4765000E-02    9.8124335E-11
  1.4800000E-02   -2.2374425E-11
  1.4835000E-02   -2.4410698E-10
  1.4870000E-02   -3.7181296E-11
  1.4905000E-02    2.8121869E-10
  1.4940000E-02   -7.6617393E-11
  1.4975000E-02   -5.2961435E-10
  1.5010000E-02   -1.8427775E-11
  1.5045000E-02    5.3081456E-10
  1.5080000E-02    3.6366406E-11
  1.5115000E-02   -3.1202846E-10
  1.5150000E-02   -4.1742793E-11
  1.5185000E-02    6.1776716E-11
  1.5220000E-02    1.0504242E-10
  1.5255000E-02   -9.6159738E-12
  1.5290000E-02    9.3277358E-11
  1.5325000E-02    7.3644139E-11
  1.5360000E-02   -1.6065625E-10
  1.5395000E-02   -2.1364664E-10
  1.5430000E-02    3.0646333E-10
  1.5465000E-02    4.7330584E-10
  1.5500000E-02   -4.3979714E-10
  1.5535000E-02   -9.4460173E-10
  1.5570000E-02    2.2034190E-10
  1.5605000E-02    8.5480728E-10
  1.5640000E-02    5.7392910E-11
  1.5675001E-02   -3.1174321E-10
  1.5710000E-02    1.0391269E-11
  1.5745001E-02   -5.6651541E-11
  1.5780000E-02   -1.7380283E-10
  1.5814999E-02    1.8753107E-10
  1.5850000E-02    9.7581920E-10
  1.5884999E-02    3.7859368E-10
  1.5920000E-02   -1.3137889E-09
  1.5954999E-02   -5.8895394E-10
  1.5990000E-02    5.9039845E-10
  1.6024999E-02    1.0237379E-10
  1.6060000E-02    1.4110958E-10
  1.6094999E-02    1.7308223E-10
  1.6130000E-02   -3.7055373E-10
  1.6164999E-02   -4.8852672E-10
  1.6200000E-02   -1.9727810E-09
  1.6235000E-02   -7.4268020E-10
  1.6270000E-02    2.6326270E-09
  1.6305000E-02    1.8340250E-09
  1.6340001E-02   -1.0771735E-09
  1.6375000E-02    1.3126573E-10
  1.6410001E-02    7.1854933E-10
  1.6445000E-02   -1.2211949E-09
  1.6480001E-02    4.2716186E-10
  1.6515000E-02    1.1046217E-09
  1.6550001E-02   -1.5572619E-09
  1.6585000E-02   -6.0104616E-10
  1.6620001E-02    7.5598999E-10
  1.6655000E-02   -1.4937898E-09
  1.6690001E-02   -9.7974973E-10
  1.6725000E-02    2.0729247E-09
  1.6759999E-02   -1.6399901E-10
  1.6795000E-02   -1.1580793E-09
  1.6829999E-02    1.8946902E-09
  1.6865000E-02    1.6615002E-10
  1.6899999E-02   -2.7049167E-09
  1.6935000E-02    1.1247982E-10
  1.6969999E-02    1.3085266E-09
  1.7005000E-02   -1.1833717E-10
  1.7039999E-02    1.6634851E-09
  1.7075000E-02    1.8784876E-09
  1.7109999E-02   -2.0844357E-09
  1.7145000E-02   -3.2458856E-09
  1.7180000E-02   -9.8547182E-10
  1.7215000E-02    5.9579819E-10
  1.7250000E-02    1.2087613E-09
  1.7285001E-02    2.1431157E-09
  1.7320000E-02    1.5220839E-09
  1.7355001E-02   -8.6333113E-10
  1.7390000E-02   -1.5965538E-09
  1.7425001E-02   -5.9823091E-10
  1.7460000E-02   -5.6944499E-10
  1.7495001E-02   -1.4218263E-11
  1.7530000E-02    1.5921270E-09
  1.7565001E-02    1.5636428E-10
  1.7600000E-02   -2.0424291E-09
  1.7635001E-02    4.4428089E-10
  1.7670000E-02    2.2376716E-09
  1.7704999E-02   -6.1752164E-10
  1.7740000E-02   -1.1826471E-09
  1.7774999E-02    1.7543490E-09
  1.7810000E-02    1.5182057E-09
  1.7844999E-02   -1.5891000E-09
  1.7880000E-02   -8.4233942E-10
  1.7914999E-02    1.1548129E-09
  1.7950000E-02    5.0978421E-10
  1.7984999E-02    1.9870425E-10
  1.8020000E-02    1.4971062E-09
  1.8054999E-02    3.6012787E-10
  1.8090000E-02   -2.0271667E-09
  1.8124999E-02   -1.0113349E-11
  1.8160000E-02    2.1264341E-09
  1.8195000E-02   -2.7025748E-10
  1.8230001E-02   -2.0734618E-09
  1.8265000E-02   -6.5040712E-10
  1.8300001E-02    6.8938050E-10
  1.8335000E-02    1.2442918E-09
  1.8370001E-02    1.0558154E-09
  1.8405000E-02    6.4273774E-11
  1.8440001E-02    5.1451782E-10
  1.8475000E-02   -3.5894387E-10
  1.8510001E-02   -3.1275473E-09
  1.8545000E-02   -4.6270215E-10
  1.8580001E-02    3.4204033E-09
  1.8615000E-02    1.4978934E-09
  1.8650001E-02    5.4088928E-10
  1.8685000E-02    1.9808750E-09
  1.8719999E-02   -1.5871581E-09
  1.8755000E-02   -2.9635141E-09
  1.8789999E-02    1.2976878E-09
  1.8825000E-02    2.2943865E-09
  1.8859999E-02   -1.4008630E-09
  1.8895000E-02   -2.3482076E-09
  1.8929999E-02    3.2984135E-10
  1.8965000E-02    1.7312011E-09
  1.8999999E-02    9.6176356E-10
  1.9035000E-02    1.8952721E-11
  1.9069999E-02   -4.7655258E-10
  1.9105000E-02   -1.7319443E-09
  1.9140000E-02   -6.8440431E-10
  1.9175000E-02    7.1230893E-10
  1.9210000E-02   -7.5967360E-10
  1.9245001E-02   -4.5944021E-10
  1.9280000E-02    2.0107749E-09
  1.9315001E-02   -3.2509584E-10
  1.9350000E-02   -9.2170854E-10
  1.9385001E-02    3.3860121E-09
  1.9420000E-02   -2.3778828E-09
  1.9455001E-02   -8.1606419E-09
  1.9490000E-02    2.7928153E-09
  1.9525001E-02    6.6098038E-09
  1.9560000E-02   -5.1555453E-09
  1.9595001E-02   -3.0099208E-09
  1.9630000E-02    7.2761073E-09
  1.9664999E-02    4.9006682E-10
  1.9700000E-02   -5.9333773E-09
  1.9734999E-02    2.0883075E-09
  1.9770000E-02    3.9147969E-09
  1.9804999E-02   -2.0346826E-09
  1.9840000E-02   -4.3844289E-10
  1.9874999E-02    1.1699924E-09
  1.9910000E-02   -3.0979743E-09
  1.9944999E-02   -2.1352853E-09
  1.9980000E-02    2.7184808E-09
  2.0014999E-02    2.1914506E-09
  2.0050000E-02   -6.3531308E-10
  2.0085000E-02   -1.5387971E-09
  2.0120000E-02   -7.2565820E-10
  2.0155000E-02    9.1921243E-10
  2.0190001E-02    2.8779951E-10
  2.0225000E-02   -9.6602693E-10
  2.0260001E-02    8.4422325E-10
  2.0295000E-02    1.8418692E-10
  2.0330001E-02   -2.7223139E-09
  2.0365000E-02    1.1588656E-09
  2.0400001E-02    3.9340011E-09
  2.0435000E-02   -9.9574415E-10
  2.0470001E-02   -9.5444908E-10
  2.0505000E-02    3.1386367E-09
  2.0540001E-02   -5.3499594E-10
  2.0575000E-02   -3.4764311E-09
  2.0609999E-02    4.3159920E-11
  2.0645000E-02    5.5627813E-10
  2.0679999E-02   -3.2346531E-10
  2.0715000E-02    1.2694606E-09
  2.0749999E-02    1.1243995E-09
  2.0785000E-02    1.1069905E-09
  2.0819999E-02    5.4861959E-10
  2.0855000E-02   -2.7283973E-09
  2.0889999E-02   -2.8646519E-11
  2.0925000E-02    4.0652317E-09
  2.0959999E-02   -2.8230278E-09
  2.0995000E-02   -5.8474305E-09
  2.1029999E-02    4.4464401E-09
  2.1065000E-02    6.8269781E-09
  2.1100000E-02   -2.1999544E-09
  2.1135001E-02   -3.8495327E-09
  2.1170000E-02    1.4910920E-09
  2.1205001E-02    1.7018630E-09
  2.1240000E-02   -2.5689324E-09
  2.1275001E-02   -1.3096865E-09
  2.1310000E-02    6.0258469E-09
  2.1345001E-02    4.9661781E-09
  2.1380000E-02   -4.9291531E-09
  2.1415001E-02   -4.2669361E-09
  2.1450000E-02    3.3192384E-09
  2.1485001E-02    1.1825151E-09
  2.1520000E-02   -1.2045233E-09
  2.1555001E-02    2.5775901E-09
  2.1590000E-02    6.4076378E-10
  2.1624999E-02   -2.7557563E-09
  2.1660000E-02   -2.2239763E-10
  2.1694999E-02    4.2558237E-10
  2.1730000E-02   -4.1943107E-10
  2.1764999E-02    2.4021532E-10
  2.1800000E-02   -1.2755661E-09
  2.1834999E-02    6.4628147E-10
  2.1870000E-02    4.3123940E-09
  2.1904999E-02   -7.2314804E-10
  2.1940000E-02   -3.0004623E-09
  2.1974999E-02    3.5452274E-09
  2.2010000E-02    7.7694901E-10
  2.2045000E-02   -5.9224536E-09
  2.2080000E-02    9.3881281E-10
  2.2115000E-02    5.7783276E-09
  2.2150001E-02   -1.0846893E-09
  2.2185000E-02   -2.0056614E-09
  2.2220001E-02    1.3804902E-09
  2.2255000E-02   -2.8954186E-09
  2.2290001E-02   -4.0495522E-09
  2.2325000E-02    2.0809530E-09
  2.2360001E-02    2.0205970E-09
  2.2395000E-02   -1.4819086E-09
  2.2430001E-02    1.3380226E-09
  2.2465000E-02    2.4501838E-09
  2.2500001E-02   -1.7469826E-09
  2.2535000E-02   -1.1274903E-09
  2.2569999E-02    1.3339918E-09
  2.2605000E-02   -1.8825286E-09
  2.2639999E-02   -2.1137219E-09
  2.2675000E-02    2.1249795E-09
  2.2709999E-02    8.8069169E-10
  2.2745000E-02   -4.1653395E-10
  2.2779999E-02    1.4073828E-09
  2.2815000E-02   -3.4990801E-09
  2.2849999E-02   -4.5898783E-09
  2.2885000E-02    5.9764029E-09
  2.2919999E-02    4.3433075E-09
  2.2955000E-02   -7.6987812E-09
  2.2990000E-02   -2.4905509E-09
  2.3025000E-02    4.8406279E-09
  2.3060000E-02   -3.4900434E-09
  2.3095001E-02   -2.8144993E-09
  2.3130000E-02    6.0930061E-09
  2.3165001E-02   -2.6491040E-10
  2.3200000E-02   -4.1252410E-09
  2.3235001E-02    6.0615610E-09
  2.3270000E-02    4.8545674E-09
  2.3305001E-02   -6.1505263E-09
  2.3340000E-02   -5.1392877E-09
  2.3375001E-02    6.6323924E-10
  2.3410000E-02    8.8347268E-10
  2.3445001E-02    1.1858492E-09
  2.3480000E-02    1.3154995E-09
  2.3514999E-02   -1.2373207E-09
  2.3550000E-02   -2.1989850E-09
  2.3584999E-02   -4.4640891E-10
  2.3620000E-02    1.0951576E-09
  2.3654999E-02    9.9662323E-10
  2.3690000E-02    6.2200595E-10
  2.3724999E-02    9.2510799E-10
  2.3760000E-02   -4.0495096E-10
  2.3794999E-02   -2.1914695E-09
  2.3830000E-02   -1.0621811E-09
  2.3864999E-02    3.0866579E-10
  2.3900000E-02    1.0074246E-09
  2.3934999E-02    2.2265336E-09
  2.3970000E-02    4.9618731E-10
  2.4005000E-02   -1.4388816E-09
  2.4040001E-02    1.4253436E-10
  2.4075000E-02   -5.7809596E-10
  2.4110001E-02   -9.3769970E-10
  2.4145000E-02    2.7689062E-09
  2.4180001E-02   -3.7780762E-10
  2.4215000E-02   -5.3898956E-09
  2.4250001E-02    1.0980822E-09
  2.4285000E-02    3.7432639E-09
  2.4320001E-02   -3.4415919E-09
  2.4355000E-02   -6.1565103E-10
  2.4390001E-02    5.4480322E-09
  2.4425000E-02   -8.3741564E-10
  2.4460001E-02   -4.4934452E-09
  2.4495000E-02    4.7922077E-10
  2.4529999E-02    1.2245780E-09
  2.4565000E-02    2.6953079E-11
  2.4599999E-02    9.2971791E-10
  2.4635000E-02    4.4378132E-10
  2.4669999E-02    5.9811744E-10
  2.4705000E-02   -1.4471448E-10
  2.4739999E-02   -2.4020483E-09
  2.4775000E-02    3.3864608E-10
  2.4809999E-02    2.6243911E-09
  2.4845000E-02   -1.1244857E-09
  2.4879999E-02   -9.6774588E-10
  2.4915000E-02    2.0763304E-09
  2.4950000E-02   -1.0764419E-09
  2.4985000E-02   -2.6967693E-09
  2.5020000E-02    1.4601172E-09
  2.5055001E-02    1.6080441E-09
  2.5090000E-02   -2.2600040E-09
  2.5125001E-02   -2.9156033E-09
  2.5160000E-02   -2.4607086E-10
  2.5195001E-02    2.5578464E-09
  2.5230000E-02    1.9389879E-09
  2.5265001E-02   -1.1242478E-09
  2.5300000E-02   -3.3268133E-10
  2.5335001E-02    1.9204822E-09
  2.5370000E-02   -7.7874124E-10
  2.5405001E-02   -2.8077147E-09
  2.5440000E-02   -4.3079467E-11
  2.5474999E-02    4.2400086E-10
  2.5510000E-02   -1.6797074E-09
  2.5544999E-02    2.2255994E-10
  2.5580000E-02    2.9619414E-09
  2.5614999E-02    1.2521200E-09
  2.5650000E-02   -1.1610615E-09
  2.5684999E-02   -1.1301474E-09
  2.5720000E-02   -1.1645092E-09
  2.5754999E-02   -1.5400436E-09
  2.5790000E-02   -2.3713526E-10
  2.5824999E-02    1.6633129E-09
  2.5860000E-02    1.5167653E-09
  2.5895000E-02    9.3444627E-11
  2.5930000E-02    4.9332405E-10
  2.5965000E-02    7.9647239E-10
  2.6000001E-02   -2.7927431E-09
  2.6035000E-02   -4.2137165E-09
  2.6070001E-02    1.3646277E-09
  2.6105000E-02    3.6399346E-09
  2.6140001E-02   -1.8549384E-09
  2.6175000E-02   -3.6215042E-09
  2.6210001E-02    7.0947734E-11
  2.6245000E-02    8.1279228E-10
  2.6280001E-02   -1.5243702E-11
  2.6315000E-02    7.6745366E-10
  2.6350001E-02    7.9522300E-10
  2.6385000E-02    2.3125504E-10
  2.6419999E-02   -2.1392322E-11
  2.6455000E-02    3.0422867E-10
  2.6489999E-02    4.4948492E-10
  2.6525000E-02   -2.5515681E-09
  2.6559999E-02   -3.5156609E-09
  2.6595000E-02    2.1872872E-09
  2.6629999E-02    2.9807918E-09
  2.6665000E-02   -2.5866647E-09
  2.6699999E-02   -1.1144726E-10
  2.6735000E-02    4.0895096E-09
  2.6769999E-02   -9.8713271E-10
  2.6805000E-02   -3.0371212E-09
  2.6839999E-02    1.4937699E-09
  2.6875000E-02    1.4905680E-09
  2.6910000E-02   -5.1650717E-10
  2.6945001E-02   -4.3418527E-10
  2.6980000E-02   -5.5856858E-10