 -4.8000002E-03    1.0000000E-24
 -4.7650002E-03    1.0000001E-24
 -4.7300002E-03    1.0000002E-24
 -4.6950001E-03    1.0000001E-24
 -4.6600001E-03    1.0000000E-24
 -4.6250001E-03    1.0000002E-24
 -4.5900000E-03    1.0000001E-24
 -4.5550000E-03    9.9999992E-25
 -4.5200000E-03    1.0000004E-24
 -4.4849999E-03    1.0000003E-24
 -4.4499999E-03    9.9999982E-25
 -4.4149999E-03    9.9999992E-25
 -4.3799998E-03    1.0000002E-24
 -4.3449998E-03    1.0000000E-24
 -4.3100002E-03    1.0000001E-24
 -4.2750002E-03    1.0000006E-24
 -4.2400002E-03    1.0000001E-24
 -4.2050001E-03    9.9999943E-25
 -4.1700001E-03    1.0000000E-24
 -4.1350001E-03    1.0000005E-24
 -4.1000000E-03    1.0000000E-24
 -4.0650000E-03    1.0000001E-24
 -4.0300000E-03    1.0000007E-24
 -3.9949999E-03    9.9999982E-25
 -3.9599999E-03    9.9999953E-25
 -3.9249999E-03    1.0000002E-24
 -3.8900001E-03    1.0000002E-24
 -3.8550000E-03    1.0000001E-24
 -3.8200000E-03    1.0000001E-24
 -3.7849999E-03    9.9999972E-25
 -3.7499999E-03    9.9999982E-25
 -3.7150001E-03    1.0000009E-24
 -3.6800001E-03    1.0000008E-24
 -3.6450000E-03    9.9999963E-25
 -3.6100000E-03    1.0000000E-24
 -3.5750000E-03    1.0000006E-24
 -3.5399999E-03    9.9999963E-25
 -3.5049999E-03    9.9999943E-25
 -3.4700001E-03    1.0000007E-24
 -3.4350001E-03    1.0000006E-24
 -3.4000000E-03    9.9999933E-25
 -3.3650000E-03    9.9999972E-25
 -3.3300000E-03    1.0000005E-24
 -3.2949999E-03    1.0000002E-24
 -3.2599999E-03    1.0000000E-24
 -3.2250001E-03    1.0000001E-24
 -3.1900001E-03    9.9999963E-25
 -3.1550000E-03    9.9999963E-25
 -3.1200000E-03    1.0000008E-24
 -3.0850000E-03    1.0000008E-24
 -3.0499999E-03    9.9999943E-25
 -3.0149999E-03    9.9999933E-25
 -2.9800001E-03    1.0000002E-24
 -2.9450001E-03    1.0000001E-24
 -2.9100000E-03    9.9999992E-25
 -2.8750000E-03    1.0000006E-24
 -2.8400000E-03    1.0000007E-24
 -2.8049999E-03    1.0000001E-24
 -2.7699999E-03    1.0000000E-24
 -2.7350001E-03    9.9999953E-25
 -2.7000001E-03    9.9999992E-25
 -2.6650000E-03    1.0000011E-24
 -2.6300000E-03    1.0000005E-24
 -2.5950000E-03    9.9999913E-25
 -2.5599999E-03    9.9999972E-25
 -2.5249999E-03    1.0000009E-24
 -2.4900001E-03    1.0000003E-24
 -2.4550001E-03    1.0000001E-24
 -2.4200000E-03    1.0000003E-24
 -2.3850000E-03    9.9999933E-25
 -2.3500000E-03    9.9999992E-25
 -2.3149999E-03    1.0000013E-24
 -2.2799999E-03    1.0000001E-24
 -2.2450001E-03    9.9999963E-25
 -2.2100001E-03    1.0000016E-24
 -2.1750000E-03    1.0000005E-24
 -2.1400000E-03    9.9999815E-25
 -2.1050000E-03    9.9999923E-25
 -2.0699999E-03    1.0000004E-24
 -2.0349999E-03    1.0000001E-24
 -2.0000001E-03    1.0000002E-24
 -1.9650001E-03    1.0000003E-24
 -1.9300000E-03    1.0000008E-24
 -1.8950000E-03    1.0000012E-24
 -1.8600000E-03    9.9999972E-25
 -1.8250000E-03    9.9999884E-25
 -1.7900000E-03    1.0000002E-24
 -1.7550000E-03    1.0000008E-24
 -1.7199999E-03    9.9999992E-25
 -1.6850000E-03    1.0000000E-24
 -1.6500000E-03    1.0000002E-24
 -1.6150000E-03    9.9999884E-25
 -1.5800000E-03    9.9999953E-25
 -1.5450000E-03    1.0000016E-24
 -1.5100000E-03    1.0000006E-24
 -1.4750001E-03    9.9999874E-25
 -1.4400000E-03    1.0000006E-24
 -1.4050000E-03    1.0000015E-24
 -1.3700000E-03    9.9999913E-25
 -1.3350000E-03    9.9999854E-25
 -1.3000000E-03    1.0000012E-24
 -1.2650000E-03    1.0000011E-24
 -1.2300001E-03    9.9999913E-25
 -1.1950000E-03    9.9999953E-25
 -1.1600000E-03    1.0000004E-24
 -1.1250000E-03    9.9999992E-25
 -1.0900000E-03    1.0000005E-24
 -1.0550000E-03    1.0000009E-24
 -1.0200000E-03    9.9999992E-25
 -9.8500005E-04    9.9999992E-25
 -9.5000002E-04    1.0000004E-24
 -9.1499998E-04    1.0000000E-24
 -8.8000001E-04    1.0000002E-24
 -8.4499997E-04    1.0000009E-24
 -8.1000000E-04    9.9999943E-25
 -7.7500002E-04    9.9999854E-25
 -7.3999999E-04    1.0000002E-24
 -7.0500001E-04    1.0000008E-24
 -6.6999998E-04    1.0000001E-24
 -6.3500000E-04    1.0000014E-24
 -6.0000003E-04    1.0000002E-24
 -5.6499999E-04    9.9999716E-25
 -5.3000002E-04    9.9999982E-25
 -4.9499999E-04    1.0000045E-24
 -4.6000001E-04    9.9999864E-25
 -4.2500001E-04    9.9999055E-25
 -3.9000000E-04    1.0000064E-24
 -3.5500000E-04    1.0000257E-24
 -3.1999999E-04    9.9998010E-25
 -2.8499999E-04    9.9993021E-25
 -2.5000001E-04    1.0000642E-24
 -2.1499999E-04    1.0001908E-24
 -1.8000000E-04    9.9980034E-25
 -1.4500000E-04    9.9949732E-25
 -1.1000000E-04    1.0005876E-24
 -7.5000004E-05    1.0012681E-24
 -3.9999999E-05    9.9837388E-25
 -4.9999999E-06    9.9692977E-25
  2.9999999E-05    1.0042482E-24
  6.5000000E-05    1.0072449E-24
  9.9999997E-05    9.8953637E-25
  1.3499999E-04    9.8314956E-25
  1.7000000E-04    1.0244257E-24
  2.0500000E-04    1.0390009E-24
  2.3999999E-04    9.4556181E-25
  2.7500000E-04    9.0972278E-25
  3.1000000E-04    1.1166978E-24
  3.4500001E-04    1.2087354E-24
  3.8000001E-04    7.5792632E-25
  4.1499999E-04    5.2070154E-25
  4.4999999E-04    1.4875026E-24
  4.8500000E-04    2.0851990E-24
  5.2000000E-04    4.7781305E-26
  5.5499998E-04   -1.4084570E-24
  5.9000001E-04    2.7929958E-24
  6.2499999E-04    6.2207737E-24
  6.6000002E-04   -2.2152005E-24
  6.9500000E-04   -1.0038049E-23
  7.3000003E-04    6.3761083E-24
  7.6500000E-04    2.3763733E-23
  7.9999998E-04   -7.0532338E-24
  8.3500001E-04   -4.4821833E-23
  8.6999999E-04    1.0769295E-23
  9.0500002E-04    9.1070457E-23
  9.4000000E-04   -4.7690716E-24
  9.7499997E-04   -1.7184896E-22
  1.0100000E-03   -1.5281156E-23
  1.0450000E-03    3.2443928E-22
  1.0800000E-03    8.5896786E-23
  1.1150000E-03   -5.8779654E-22
  1.1500000E-03   -2.6015287E-22
  1.1849999E-03    1.0402103E-21
  1.2200000E-03    6.6947406E-22
  1.2550000E-03   -1.7688967E-21
  1.2900000E-03   -1.5433645E-21
  1.3250000E-03    2.8902119E-21
  1.3600000E-03    3.3267217E-21
  1.3950000E-03   -4.4734428E-21
  1.4299999E-03   -6.7802468E-21
  1.4650000E-03    6.4604494E-21
  1.5000000E-03    1.3202665E-20
  1.5350000E-03   -8.3908434E-21
  1.5700000E-03   -2.4643573E-20
  1.6050000E-03    8.9594137E-21
  1.6400000E-03    4.4195468E-20
  1.6749999E-03   -5.1254809E-21
  1.7100000E-03   -7.6121348E-20
  1.7450000E-03   -9.3055662E-21
  1.7800000E-03    1.2568896E-19
  1.8150000E-03    4.6002280E-20
  1.8500000E-03   -1.9808868E-19
  1.8850000E-03   -1.2541821E-19
  1.9200000E-03    2.9570011E-19
  1.9550000E-03    2.8126067E-19
  1.9900000E-03   -4.1220478E-19
  2.0250001E-03   -5.6555186E-19
  2.0600001E-03    5.2166926E-19
  2.0949999E-03    1.0529971E-18
  2.1299999E-03   -5.5986200E-19
  2.1650000E-03   -1.8413752E-18
  2.2000000E-03    3.9504758E-19
  2.2350000E-03    3.0421265E-18
  2.2700001E-03    2.1409067E-19
  2.3050001E-03   -4.7510347E-18
  2.3399999E-03   -1.6729070E-18
  2.3749999E-03    6.9840216E-18
  2.4100000E-03    4.6114070E-18
  2.4450000E-03   -9.5574094E-18
  2.4800000E-03   -9.9333589E-18
  2.5150001E-03    1.1888635E-17
  2.5500001E-03    1.8818169E-17
  2.5849999E-03   -1.2694972E-17
  2.6199999E-03   -3.2612969E-17
  2.6550000E-03    9.5819593E-18
  2.6900000E-03    5.2518792E-17
  2.7250000E-03    1.4530128E-18
  2.7600001E-03   -7.8938375E-17
  2.7950001E-03   -2.6510854E-17
  2.8299999E-03    1.1032815E-16
  2.8649999E-03    7.4077174E-17
  2.9000000E-03   -1.4140299E-16
  2.9350000E-03   -1.5475508E-16
  2.9700000E-03    1.6061766E-16
  3.0050001E-03    2.7990466E-16
  3.0400001E-03   -1.4703712E-16
  3.0749999E-03   -4.5845759E-16
  3.1099999E-03    6.7061299E-17
  3.1450000E-03    6.9104918E-16
  3.1800000E-03    1.2797158E-16
  3.2150000E-03   -9.6067502E-16
  3.2500001E-03   -5.0151323E-16
  3.2850001E-03    1.2194993E-15
  3.3199999E-03    1.1261694E-15
  3.3549999E-03   -1.3724255E-15
  3.3900000E-03   -2.0691611E-15
  3.4250000E-03    1.2598072E-15
  3.4600000E-03    3.3649349E-15
  3.4950001E-03   -6.4431652E-16
  3.5300001E-03   -4.9715921E-15
  3.5649999E-03   -7.8961258E-16
  3.5999999E-03    6.7101658E-15
  3.6350000E-03    3.4117246E-15
  3.6700000E-03   -8.1906612E-15
  3.7050000E-03   -7.5824373E-15
  3.7400001E-03    8.7366451E-15
  3.7750001E-03    1.3534800E-14
  3.8099999E-03   -7.3310295E-15
  3.8449999E-03   -2.1191213E-14
  3.8800000E-03    2.6185717E-15
  3.9149998E-03    2.9916119E-14
  3.9499998E-03    6.9875610E-15
  3.9849998E-03   -3.8227308E-14
  4.0199999E-03   -2.3041510E-14
  4.0549999E-03    4.3520170E-14
  4.0899999E-03    4.6595662E-14
  4.1250000E-03   -4.1898007E-14
  4.1600000E-03   -7.7506151E-14
  4.1950000E-03    2.8240499E-14
  4.2300001E-03    1.1354436E-13
  4.2650001E-03    3.3308516E-15
  4.3000001E-03   -1.4942598E-13
  4.3350002E-03   -5.8430386E-14
  4.3700002E-03    1.7597485E-13
  4.4049998E-03    1.4071819E-13
  4.4399998E-03   -1.7975512E-13
  4.4749998E-03   -2.4954878E-13
  4.5099999E-03    1.4360294E-13
  4.5449999E-03    3.7716564E-13
  4.5799999E-03   -4.8514327E-14
  4.6150000E-03   -5.0591475E-13
  4.6500000E-03   -1.2274666E-13
  4.6850001E-03    6.0624178E-13
  4.7200001E-03    3.8020262E-13
  4.7550001E-03   -6.3648273E-13
  4.7900002E-03   -7.1968516E-13
  4.8250002E-03    5.4558853E-13
  4.8600002E-03    1.1152081E-12
  4.8949998E-03   -2.7983063E-13
  4.9299998E-03   -1.5122848E-12
  4.9649999E-03   -2.0591876E-13
  4.9999999E-03    1.8244789E-12
  5.0349999E-03    9.3266931E-13
  5.0700000E-03   -1.9358612E-12
  5.1050000E-03   -1.8792348E-12
  5.1400000E-03    1.7118415E-12
  5.1750001E-03    2.9647474E-12
  5.2100001E-03   -1.0199031E-12
  5.2450001E-03   -4.0362006E-12
  5.2800002E-03   -2.3985298E-13
  5.3150002E-03    4.8663001E-12
  5.3500002E-03    2.0966586E-12
  5.3849998E-03   -5.1671276E-12
  5.4199998E-03   -4.4688272E-12
  5.4549999E-03    4.6240325E-12
  5.4899999E-03    7.1298844E-12
  5.5249999E-03   -2.9510318E-12
  5.5600000E-03   -9.6921837E-12
  5.5950000E-03   -3.6173436E-14
  5.6300000E-03    1.1619029E-11
  5.6650001E-03    4.3393943E-12
  5.7000001E-03   -1.2273223E-11
  5.7350001E-03   -9.7036251E-12
  5.7700002E-03    1.1005066E-11
  5.8050002E-03    1.5566550E-11
  5.8400002E-03   -7.2767738E-12
  5.8749998E-03   -2.1051209E-11
  5.9099998E-03    8.1205631E-13
  5.9449999E-03    2.5021308E-11
  5.9799999E-03    8.2524361E-12
  6.0149999E-03   -2.6211549E-11
  6.0500000E-03   -1.9248516E-11
  6.0850000E-03    2.3428971E-11
  6.1200000E-03    3.0928076E-11
  6.1550001E-03   -1.5801693E-11
  6.1900001E-03   -4.1512436E-11
  6.2250001E-03    3.0384777E-12
  6.2600002E-03    4.8852873E-11
  6.2950002E-03    1.4341655E-11
  6.3299998E-03   -5.0704843E-11
  6.3649998E-03   -3.4856559E-11
  6.3999998E-03    4.5106644E-11
  6.4349999E-03    5.6043708E-11
  6.4699999E-03   -3.0822168E-11
  6.5049999E-03   -7.4633855E-11
  6.5400000E-03    7.7651141E-12
  6.5750000E-03    8.6931948E-11
  6.6100000E-03    2.2699129E-11
  6.6450001E-03   -8.9360706E-11
  6.6800001E-03   -5.7651939E-11
  6.7150001E-03    7.9086598E-11
  6.7500002E-03    9.2752313E-11
  6.7850002E-03   -5.4654350E-11
  6.8199998E-03   -1.2261936E-10
  6.8549998E-03    1.6554090E-11
  6.8899998E-03    1.4149135E-10
  6.9249999E-03    3.2402556E-11
  6.9599999E-03   -1.4413987E-10
  6.9949999E-03   -8.7066562E-11
  7.0300000E-03    1.2689258E-10
  7.0650000E-03    1.4040212E-10
  7.1000000E-03   -8.8518373E-11
  7.1350001E-03   -1.8433993E-10
  7.1700001E-03    3.0782030E-11
  7.2050001E-03    2.1085796E-10
  7.2400002E-03    4.1378921E-11
  7.2750002E-03   -2.1316104E-10
  7.3099998E-03   -1.2005068E-10
  7.3449998E-03    1.8691150E-10
  7.3799998E-03    1.9500677E-10
  7.4149999E-03   -1.3137909E-10
  7.4499999E-03   -2.5495245E-10
  7.4850000E-03    5.0178153E-11
  7.5200000E-03    2.8923236E-10
  7.5550000E-03    4.8732678E-11
  7.5900001E-03   -2.8959363E-10
  7.6250001E-03   -1.5379757E-10
  7.6600001E-03    2.5162733E-10
  7.6950002E-03    2.5108912E-10
  7.7300002E-03   -1.7582762E-10
  7.7650002E-03   -3.2586386E-10
  7.7999998E-03    6.8329391E-11
  7.8349998E-03    3.6457559E-10
  7.8699999E-03    5.8913173E-11
  7.9049999E-03   -3.5738248E-10
  7.9399999E-03   -1.8904275E-10
  7.9750000E-03    3.0063887E-10
  8.0100000E-03    3.0256314E-10
  8.0450000E-03   -1.9852814E-10
  8.0800001E-03   -3.8054979E-10
  8.1150001E-03    6.3292607E-11
  8.1500001E-03    4.0805481E-10
  8.1850002E-03    8.5913297E-11
  8.2200002E-03   -3.7720899E-10
  8.2550002E-03   -2.2537944E-10
  8.2900003E-03    2.8978053E-10
  8.3250003E-03    3.3051870E-10
  8.3600003E-03   -1.5862844E-10
  8.3950004E-03   -3.8089118E-10
  8.4300004E-03    6.9496852E-12
  8.4650004E-03    3.6569303E-10
  8.5000005E-03    1.3553127E-10
  8.5349996E-03   -2.8785599E-10
  8.5699996E-03   -2.3896934E-10
  8.6049996E-03    1.6506083E-10
  8.6399997E-03    2.8073044E-10
  8.6749997E-03   -2.7154815E-11
  8.7099997E-03   -2.5191946E-10
  8.7449998E-03   -8.9699692E-11
  8.7799998E-03    1.6178818E-10
  8.8149998E-03    1.5172198E-10
  8.8499999E-03   -3.8392872E-11
  8.8849999E-03   -1.3790859E-10
  8.9199999E-03   -7.6407894E-11
  8.9550000E-03    4.9104037E-11
  8.9900000E-03    1.3793254E-10
  9.0250000E-03    8.8329108E-11
  9.0600001E-03   -1.1292386E-10
  9.0950001E-03   -2.2674680E-10
  9.1300001E-03   -7.4394527E-12
  9.1650002E-03    3.0906255E-10
  9.2000002E-03    1.9989421E-10
  9.2350002E-03   -2.8600028E-10
  9.2700003E-03   -4.1021164E-10
  9.3050003E-03    1.3484047E-10
  9.3400003E-03    5.6544291E-10
  9.3750004E-03    1.2685757E-10
  9.4100004E-03   -5.9586952E-10
  9.4450004E-03   -4.3946516E-10
  9.4799995E-03    4.6009577E-10
  9.5149996E-03    7.1454820E-10
  9.5499996E-03   -1.6412668E-10
  9.5849996E-03   -8.6074775E-10
  9.6199997E-03   -2.3428373E-10
  9.6549997E-03    8.1321105E-10
  9.6899997E-03    6.3849104E-10
  9.7249998E-03   -5.5556881E-10
  9.7599998E-03   -9.3677310E-10
  9.7949998E-03    1.3116191E-10
  9.8299999E-03    1.0336823E-09
  9.8649999E-03    3.6100004E-10
  9.8999999E-03   -8.8374774E-10
  9.9350000E-03   -7.9281842E-10
  9.9700000E-03    5.0875149E-10
  1.0005000E-02    1.0421340E-09
  1.0040000E-02    2.3938143E-12
  1.0075000E-02   -1.0287740E-09
  1.0110000E-02   -5.1025167E-10
  1.0145000E-02    7.5098083E-10
  1.0180000E-02    8.7536101E-10
  1.0215000E-02   -2.7922742E-10
  1.0250000E-02   -9.9227493E-10
  1.0285000E-02   -2.6058486E-10
  1.0320000E-02    8.1225654E-10
  1.0355000E-02    6.9792883E-10
  1.0390000E-02   -3.9805942E-10
  1.0425000E-02   -9.1437863E-10
  1.0460000E-02   -1.4267325E-10
  1.0495000E-02    8.3085877E-10
  1.0530000E-02    6.5297856E-10
  1.0565000E-02   -4.2762005E-10
  1.0600000E-02   -8.9297209E-10
  1.0635000E-02   -6.7777693E-11
  1.0670000E-02    8.9486446E-10
  1.0705000E-02    6.1181443E-10
  1.0740000E-02   -5.4021615E-10
  1.0775000E-02   -9.3492869E-10
  1.0810000E-02   -3.9778941E-11
  1.0845000E-02    8.1393287E-10
  1.0880000E-02    3.6476080E-10
  1.0915000E-02   -7.8690093E-10
  1.0950000E-02   -1.0969110E-09
  1.0985000E-02   -2.7871655E-10
  1.1020000E-02    3.5942696E-10
  1.1055000E-02   -2.2124669E-10
  1.1090000E-02   -1.4040070E-09
  1.1125000E-02   -1.8392022E-09
  1.1160000E-02   -1.3242506E-09
  1.1195000E-02   -1.0804801E-09
  1.1230000E-02   -2.0626567E-09
  1.1265000E-02   -3.6371957E-09
  1.1300000E-02   -4.5232826E-09
  1.1335000E-02   -4.6847526E-09
  1.1370000E-02   -5.3886051E-09
  1.1405000E-02   -7.3382060E-09
  1.1440000E-02   -9.7341371E-09
  1.1475000E-02   -1.1638622E-08
  1.1510000E-02   -1.3417563E-08
  1.1545000E-02   -1.6111844E-08
  1.1580000E-02   -1.9984515E-08
  1.1615000E-02   -2.4491547E-08
  1.1650000E-02   -2.9351966E-08
  1.1685000E-02   -3.4952446E-08
  1.1720000E-02   -4.1861831E-08
  1.1755000E-02   -5.0420411E-08
  1.1790000E-02   -6.0668732E-08
  1.1825000E-02   -7.2456430E-08
  1.1860000E-02   -8.5884523E-08
  1.1895000E-02   -1.0168983E-07
  1.1930000E-02   -1.2073113E-07
  1.1965000E-02   -1.4313157E-07
  1.2000000E-02   -1.6862907E-07
  1.2035000E-02   -1.9780508E-07
  1.2070000E-02   -2.3213688E-07
  1.2105000E-02   -2.7270559E-07
  1.2140000E-02   -3.1972760E-07
  1.2175000E-02   -3.7361821E-07
  1.2210000E-02   -4.3576108E-07
  1.2245000E-02   -5.0796723E-07
  1.2280000E-02   -5.9175755E-07
  1.2315000E-02   -6.8833333E-07
  1.2350000E-02   -7.9887974E-07
  1.2385000E-02   -9.2505729E-07
  1.2420000E-02   -1.0695259E-06
  1.2455000E-02   -1.2355024E-06
  1.2490000E-02   -1.4254547E-06
  1.2525000E-02   -1.6411366E-06
  1.2560000E-02   -1.8855690E-06
  1.2595000E-02   -2.1639023E-06
  1.2630000E-02   -2.4814215E-06
  1.2665000E-02   -2.8418981E-06
  1.2700000E-02   -3.2491832E-06
  1.2735000E-02   -3.7093923E-06
  1.2770000E-02   -4.2301422E-06
  1.2805000E-02   -4.8185229E-06
  1.2840000E-02   -5.4812376E-06
  1.2875000E-02   -6.2261329E-06
  1.2910000E-02   -7.0624606E-06
  1.2945000E-02   -8.0002674E-06
  1.2980000E-02   -9.0505973E-06
  1.3015000E-02   -1.0225757E-05
  1.3050000E-02   -1.1538609E-05
  1.3085000E-02   -1.3002478E-05
  1.3120000E-02   -1.4632712E-05
  1.3155000E-02   -1.6447337E-05
  1.3190000E-02   -1.8465362E-05
  1.3225000E-02   -2.0705584E-05
  1.3260000E-02   -2.3188029E-05
  1.3295000E-02   -2.5935662E-05
  1.3330000E-02   -2.8973906E-05
  1.3365000E-02   -3.2329222E-05
  1.3400000E-02   -3.6028949E-05
  1.3435000E-02   -4.0102121E-05
  1.3470000E-02   -4.4580247E-05
  1.3505000E-02   -4.9497870E-05
  1.3540000E-02   -5.4892309E-05
  1.3575000E-02   -6.0802420E-05
  1.3610000E-02   -6.7267851E-05
  1.3645000E-02   -7.4331016E-05
  1.3680000E-02   -8.2039252E-05
  1.3715000E-02   -9.0442794E-05
  1.3750000E-02   -9.9591598E-05
  1.3785000E-02   -1.0953676E-04
  1.3820000E-02   -1.2033443E-04
  1.3855000E-02   -1.3204504E-04
  1.3890000E-02   -1.4472879E-04
  1.3925000E-02   -1.5844642E-04
  1.3960000E-02   -1.7326340E-04
  1.3995000E-02   -1.8924968E-04
  1.4030000E-02   -2.0647528E-04
  1.4065000E-02   -2.2501081E-04
  1.4100000E-02   -2.4493103E-04
  1.4135000E-02   -2.6631405E-04
  1.4170000E-02   -2.8923797E-04
  1.4205000E-02   -3.1378143E-04
  1.4240000E-02   -3.4002610E-04
  1.4275000E-02   -3.6805467E-04
  1.4310000E-02   -3.9794846E-04
  1.4345000E-02   -4.2979000E-04
  1.4380000E-02   -4.6366410E-04
  1.4415000E-02   -4.9965340E-04
  1.4450000E-02   -5.3783634E-04
  1.4485000E-02   -5.7829265E-04
  1.4520000E-02   -6.2110479E-04
  1.4555000E-02   -6.6635042E-04
  1.4590000E-02   -7.1409967E-04
  1.4625000E-02   -7.6442212E-04
  1.4660000E-02   -8.1738766E-04
  1.4695000E-02   -8.7306008E-04
  1.4730000E-02   -9.3149417E-04
  1.4765000E-02   -9.9273992E-04
  1.4800000E-02   -1.0568437E-03
  1.4835000E-02   -1.1238423E-03
  1.4870000E-02   -1.1937635E-03
  1.4905000E-02   -1.2666289E-03
  1.4940000E-02   -1.3424497E-03
  1.4975000E-02   -1.4212222E-03
  1.5010000E-02   -1.5029359E-03
  1.5045000E-02   -1.5875716E-03
  1.5080000E-02   -1.6750933E-03
  1.5115000E-02   -1.7654471E-03
  1.5150000E-02   -1.8585694E-03
  1.5185000E-02   -1.9543855E-03
  1.5220000E-02   -2.0528014E-03
  1.5255000E-02   -2.1537021E-03
  1.5290000E-02   -2.2569601E-03
  1.5325000E-02   -2.3624327E-03
  1.5360000E-02   -2.4699538E-03
  1.5395000E-02   -2.5793412E-03
  1.5430000E-02   -2.6903963E-03
  1.5465000E-02   -2.8028984E-03
  1.5500000E-02   -2.9166015E-03
  1.5535000E-02   -3.0312454E-03
  1.5570000E-02   -3.1465567E-03
  1.5605000E-02   -3.2622346E-03
  1.5640000E-02   -3.3779531E-03
  1.5675001E-02   -3.4933724E-03
  1.5710000E-02   -3.6081378E-03
  1.5745001E-02   -3.7218696E-03
  1.5780000E-02   -3.8341675E-03
  1.5814999E-02   -3.9446224E-03
  1.5850000E-02   -4.0528066E-03
  1.5884999E-02   -4.1582687E-03
  1.5920000E-02   -4.2605470E-03
  1.5954999E-02   -4.3591750E-03
  1.5990000E-02   -4.4536651E-03
  1.6024999E-02   -4.5435210E-03
  1.6060000E-02   -4.6282383E-03
  1.6094999E-02   -4.7073066E-03
  1.6130000E-02   -4.7802101E-03
  1.6164999E-02   -4.8464267E-03
  1.6200000E-02   -4.9054418E-03
  1.6235000E-02   -4.9567414E-03
  1.6270000E-02   -4.9998024E-03
  1.6305000E-02   -5.0341212E-03
  1.6340001E-02   -5.0592124E-03
  1.6375000E-02   -5.0745849E-03
  1.6410001E-02   -5.0797579E-03
  1.6445000E-02   -5.0742910E-03
  1.6480001E-02   -5.0577605E-03
  1.6515000E-02   -5.0297501E-03
  1.6550001E-02   -4.9898773E-03
  1.6585000E-02   -4.9377978E-03
  1.6620001E-02   -4.8731924E-03
  1.6655000E-02   -4.7957771E-03
  1.6690001E-02   -4.7053043E-03
  1.6725000E-02   -4.6015698E-03
  1.6759999E-02   -4.4844234E-03
  1.6795000E-02   -4.3537496E-03
  1.6829999E-02   -4.2094733E-03
  1.6865000E-02   -4.0515861E-03
  1.6899999E-02   -3.8801318E-03
  1.6935000E-02   -3.6951930E-03
  1.6969999E-02   -3.4969212E-03
  1.7005000E-02   -3.2855293E-03
  1.7039999E-02   -3.0612822E-03
  1.7075000E-02   -2.8245063E-03
  1.7109999E-02   -2.5755882E-03
  1.7145000E-02   -2.3149706E-03
  1.7180000E-02   -2.0431655E-03
  1.7215000E-02   -1.7607496E-03
  1.7250000E-02   -1.4683432E-03
  1.7285001E-02   -1.1666330E-03
  1.7320000E-02   -8.5637590E-04
  1.7355001E-02   -5.3836667E-04
  1.7390000E-02   -2.1345049E-04
  1.7425001E-02    1.1745279E-04
  1.7460000E-02    4.5338590E-04
  1.7495001E-02    7.9336611E-04
  1.7530000E-02    1.1363500E-03
  1.7565001E-02    1.4812431E-03
  1.7600000E-02    1.8269337E-03
  1.7635001E-02    2.1722899E-03
  1.7670000E-02    2.5161467E-03
  1.7704999E-02    2.8573093E-03
  1.7740000E-02    3.1945726E-03
  1.7774999E-02    3.5267349E-03
  1.7810000E-02    3.8525888E-03
  1.7844999E-02    4.1709160E-03
  1.7880000E-02    4.4805119E-03
  1.7914999E-02    4.7802026E-03
  1.7950000E-02    5.0688288E-03
  1.7984999E-02    5.3452454E-03
  1.8020000E-02    5.6083417E-03
  1.8054999E-02    5.8570649E-03
  1.8090000E-02    6.0904128E-03
  1.8124999E-02    6.3074171E-03
  1.8160000E-02    6.5071522E-03
  1.8195000E-02    6.6887890E-03
  1.8230001E-02    6.8515772E-03
  1.8265000E-02    6.9948095E-03
  1.8300001E-02    7.1178568E-03
  1.8335000E-02    7.2201914E-03
  1.8370001E-02    7.3013715E-03
  1.8405000E-02    7.3610493E-03
  1.8440001E-02    7.3989728E-03
  1.8475000E-02    7.4149617E-03
  1.8510001E-02    7.4089584E-03
  1.8545000E-02    7.3810229E-03
  1.8580001E-02    7.3312810E-03
  1.8615000E-02    7.2599752E-03
  1.8650001E-02    7.1674744E-03
  1.8685000E-02    7.0542237E-03
  1.8719999E-02    6.9207614E-03
  1.8755000E-02    6.7677442E-03
  1.8789999E-02    6.5959278E-03
  1.8825000E-02    6.4061494E-03
  1.8859999E-02    6.1993417E-03
  1.8895000E-02    5.9765093E-03
  1.8929999E-02    5.7387445E-03
  1.8965000E-02    5.4872325E-03
  1.8999999E-02    5.2232030E-03
  1.9035000E-02    4.9479380E-03
  1.9069999E-02    4.6628052E-03
  1.9105000E-02    4.3692081E-03
  1.9140000E-02    4.0685725E-03
  1.9175000E-02    3.7623809E-03
  1.9210000E-02    3.4521269E-03
  1.9245001E-02    3.1393010E-03
  1.9280000E-02    2.8254259E-03
  1.9315001E-02    2.5120224E-03
  1.9350000E-02    2.2005746E-03
  1.9385001E-02    1.8925577E-03
  1.9420000E-02    1.5894204E-03
  1.9455001E-02    1.2925627E-03
  1.9490000E-02    1.0033571E-03
  1.9525001E-02    7.2311691E-04
  1.9560000E-02    4.5306000E-04
  1.9595001E-02    1.9435555E-04
  1.9630000E-02   -5.1882143E-05
  1.9664999E-02   -2.8465685E-04
  1.9700000E-02   -5.0306303E-04
  1.9734999E-02   -7.0626562E-04
  1.9770000E-02   -8.9354883E-04
  1.9804999E-02   -1.0643062E-03
  1.9840000E-02   -1.2180208E-03
  1.9874999E-02   -1.3543051E-03
  1.9910000E-02   -1.4728913E-03
  1.9944999E-02   -1.5735995E-03
  1.9980000E-02   -1.6563771E-03
  2.0014999E-02   -1.7212972E-03
  2.0050000E-02   -1.7685262E-03
  2.0085000E-02   -1.7983554E-03
  2.0120000E-02   -1.8112030E-03
  2.0155000E-02   -1.8075592E-03
  2.0190001E-02   -1.7880095E-03
  2.0225000E-02   -1.7532638E-03
  2.0260001E-02   -1.7041147E-03
  2.0295000E-02   -1.6414305E-03
  2.0330001E-02   -1.5661694E-03
  2.0365000E-02   -1.4793461E-03
  2.0400001E-02   -1.3820267E-03
  2.0435000E-02   -1.2753455E-03
  2.0470001E-02   -1.1604782E-03
  2.0505000E-02   -1.0386369E-03
  2.0540001E-02   -9.1107271E-04
  2.0575000E-02   -7.7903463E-04
  2.0609999E-02   -6.4376206E-04
  2.0645000E-02   -5.0651096E-04
  2.0679999E-02   -3.6853211E-04
  2.0715000E-02   -2.3104911E-04
  2.0749999E-02   -9.5256299E-05
  2.0785000E-02    3.7701957E-05
  2.0819999E-02    1.6673026E-04
  2.0855000E-02    2.9077602E-04
  2.0889999E-02    4.0886345E-04
  2.0925000E-02    5.2008964E-04
  2.0959999E-02    6.2360486E-04
  2.0995000E-02    7.1865349E-04
  2.1029999E-02    8.0458767E-04
  2.1065000E-02    8.8083692E-04
  2.1100000E-02    9.4692450E-04
  2.1135001E-02    1.0024782E-03
  2.1170000E-02    1.0472093E-03
  2.1205001E-02    1.0809380E-03
  2.1240000E-02    1.1036025E-03
  2.1275001E-02    1.1152254E-03
  2.1310000E-02    1.1159254E-03
  2.1345001E-02    1.1059288E-03
  2.1380000E-02    1.0855410E-03
  2.1415001E-02    1.0551555E-03
  2.1450000E-02    1.0152666E-03
  2.1485001E-02    9.6644042E-04
  2.1520000E-02    9.0930739E-04
  2.1555001E-02    8.4457046E-04
  2.1590000E-02    7.7299064E-04
  2.1624999E-02    6.9538126E-04
  2.1660000E-02    6.1259820E-04
  2.1694999E-02    5.2552251E-04
  2.1730000E-02    4.3507176E-04
  2.1764999E-02    3.4218893E-04
  2.1800000E-02    2.4780660E-04
  2.1834999E-02    1.5285655E-04
  2.1870000E-02    5.8281679E-05
  2.1904999E-02   -3.4998320E-05
  2.1940000E-02   -1.2610789E-04
  2.1974999E-02   -2.1420023E-04
  2.2010000E-02   -2.9845416E-04
  2.2045000E-02   -3.7810163E-04
  2.2080000E-02   -4.5244669E-04
  2.2115000E-02   -5.2084896E-04
  2.2150001E-02   -5.8272126E-04
  2.2185000E-02   -6.3756044E-04
  2.2220001E-02   -6.8494509E-04
  2.2255000E-02   -7.2451582E-04
  2.2290001E-02   -7.5600087E-04
  2.2325000E-02   -7.7922526E-04
  2.2360001E-02   -7.9408538E-04
  2.2395000E-02   -8.0056215E-04
  2.2430001E-02   -7.9873222E-04
  2.2465000E-02   -7.8874058E-04
  2.2500001E-02   -7.7080831E-04
  2.2535000E-02   -7.4524747E-04
  2.2569999E-02   -7.1243814E-04
  2.2605000E-02   -6.7282072E-04
  2.2639999E-02   -6.2690803E-04
  2.2675000E-02   -5.7527109E-04
  2.2709999E-02   -5.1851943E-04
  2.2745000E-02   -4.5730671E-04
  2.2779999E-02   -3.9234455E-04
  2.2815000E-02   -3.2437459E-04
  2.2849999E-02   -2.5412953E-04
  2.2885000E-02   -1.8235810E-04
  2.2919999E-02   -1.0985009E-04
  2.2955000E-02   -3.7383204E-05
  2.2990000E-02    3.4301895E-05
  2.3025000E-02    1.0446604E-04
  2.3060000E-02    1.7238430E-04
  2.3095001E-02    2.3737393E-04
  2.3130000E-02    2.9878315E-04
  2.3165001E-02    3.5600839E-04
  2.3200000E-02    4.0851312E-04
  2.3235001E-02    4.5580562E-04
  2.3270000E-02    4.9744401E-04
  2.3305001E-02    5.3305854E-04
  2.3340000E-02    5.6234736E-04
  2.3375001E-02    5.8508414E-04
  2.3410000E-02    6.0111773E-04
  2.3445001E-02    6.1035203E-04
  2.3480000E-02    6.1277061E-04
  2.3514999E-02    6.0845137E-04
  2.3550000E-02    5.9752422E-04
  2.3584999E-02    5.8017817E-04
  2.3620000E-02    5.5669143E-04
  2.3654999E-02    5.2739796E-04
  2.3690000E-02    4.9267843E-04
  2.3724999E-02    4.5298607E-04
  2.3760000E-02    4.0881851E-04
  2.3794999E-02    3.6070368E-04
  2.3830000E-02    3.0922363E-04
  2.3864999E-02    2.5498722E-04
  2.3900000E-02    1.9861170E-04
  2.3934999E-02    1.4074790E-04
  2.3970000E-02    8.2055049E-05
  2.4005000E-02    2.3180723E-05
  2.4040001E-02   -3.5208272E-05
  2.4075000E-02   -9.2459435E-05
  2.4110001E-02   -1.4797605E-04
  2.4145000E-02   -2.0116664E-04
  2.4180001E-02   -2.5144161E-04
  2.4215000E-02   -2.9827791E-04
  2.4250001E-02   -3.4120248E-04
  2.4285000E-02   -3.7976701E-04
  2.4320001E-02   -4.1359160E-04
  2.4355000E-02   -4.4236082E-04
  2.4390001E-02   -4.6579717E-04
  2.4425000E-02   -4.8369347E-04
  2.4460001E-02   -4.9591821E-04
  2.4495000E-02   -5.0238968E-04
  2.4529999E-02   -5.0309213E-04
  2.4565000E-02   -4.9808284E-04
  2.4599999E-02   -4.8748034E-04
  2.4635000E-02   -4.7147390E-04
  2.4669999E-02   -4.5030471E-04
  2.4705000E-02   -4.2424805E-04
  2.4739999E-02   -3.9365340E-04
  2.4775000E-02   -3.5894022E-04
  2.4809999E-02   -3.2054202E-04
  2.4845000E-02   -2.7892165E-04
  2.4879999E-02   -2.3459937E-04
  2.4915000E-02   -1.8811383E-04
  2.4950000E-02   -1.4001288E-04
  2.4985000E-02   -9.0878479E-05
  2.5020000E-02   -4.1295472E-05
  2.5055001E-02    8.1780017E-06
  2.5090000E-02    5.6978744E-05
  2.5125001E-02    1.0453351E-04
  2.5160000E-02    1.5030013E-04
  2.5195001E-02    1.9377065E-04
  2.5230000E-02    2.3445625E-04
  2.5265001E-02    2.7191060E-04
  2.5300000E-02    3.0573827E-04
  2.5335001E-02    3.3557534E-04
  2.5370000E-02    3.6110854E-04
  2.5405001E-02    3.8209077E-04
  2.5440000E-02    3.9831272E-04
  2.5474999E-02    4.0961476E-04
  2.5510000E-02    4.1592287E-04
  2.5544999E-02    4.1722014E-04
  2.5580000E-02    4.1352684E-04
  2.5614999E-02    4.0493193E-04
  2.5650000E-02    3.9158869E-04
  2.5684999E-02    3.7369257E-04
  2.5720000E-02    3.5149435E-04
  2.5754999E-02    3.2530213E-04
  2.5790000E-02    2.9546491E-04
  2.5824999E-02    2.6236518E-04
  2.5860000E-02    2.2641777E-04
  2.5895000E-02    1.8808072E-04
  2.5930000E-02    1.4784804E-04
  2.5965000E-02    1.0621034E-04
  2.6000001E-02    6.3659987E-05
  2.6035000E-02    2.0722020E-05
  2.6070001E-02   -2.2076234E-05
  2.6105000E-02   -6.4232816E-05
  2.6140001E-02   -1.0524967E-04
  2.6175000E-02   -1.4463790E-04
  2.6210001E-02   -1.8193969E-04
  2.6245000E-02   -2.1672336E-04
  2.6280001E-02   -2.4858757E-04
  2.6315000E-02   -2.7717405E-04
  2.6350001E-02   -3.0216813E-04
  2.6385000E-02   -3.2330060E-04
  2.6419999E-02   -3.4034631E-04
  2.6455000E-02   -3.5312850E-04
  2.6489999E-02   -3.6153253E-04
  2.6525000E-02   -3.6549513E-04
  2.6559999E-02   -3.6499414E-04
  2.6595000E-02   -3.6006916E-04
  2.6629999E-02   -3.5082357E-04
  2.6665000E-02   -3.3740772E-04
  2.6699999E-02   -3.2002176E-04
  2.6735000E-02   -2.9891144E-04
  2.6769999E-02   -2.7435625E-04
  2.6805000E-02   -2.4667944E-04
  2.6839999E-02   -2.1625042E-04
  2.6875000E-02   -1.8346995E-04
  2.6910000E-02   -1.4876126E-04
  2.6945001E-02   -1.1256143E-04
  2.6980000E-02   -7.5320066E-05