 -4.8000002E-03    1.0000000E-24
 -4.7650002E-03    1.0000000E-24
 -4.7300002E-03    1.0000002E-24
 -4.6950001E-03    1.0000002E-24
 -4.6600001E-03    1.0000002E-24
 -4.6250001E-03    1.0000000E-24
 -4.5900000E-03    1.0000000E-24
 -4.5550000E-03    1.0000003E-24
 -4.5200000E-03    1.0000001E-24
 -4.4849999E-03    9.9999992E-25
 -4.4499999E-03    1.0000002E-24
 -4.4149999E-03    1.0000003E-24
 -4.3799998E-03    1.0000001E-24
 -4.3449998E-03    1.0000001E-24
 -4.3100002E-03    1.0000000E-24
 -4.2750002E-03    1.0000001E-24
 -4.2400002E-03    1.0000001E-24
 -4.2050001E-03    1.0000000E-24
 -4.1700001E-03    9.9999972E-25
 -4.1350001E-03    1.0000000E-24
 -4.1000000E-03    1.0000006E-24
 -4.0650000E-03    1.0000003E-24
 -4.0300000E-03    9.9999953E-25
 -3.9949999E-03    9.9999972E-25
 -3.9599999E-03    1.0000003E-24
 -3.9249999E-03    1.0000004E-24
 -3.8900001E-03    1.0000001E-24
 -3.8550000E-03    1.0000000E-24
 -3.8200000E-03    1.0000000E-24
 -3.7849999E-03    1.0000003E-24
 -3.7499999E-03    1.0000002E-24
 -3.7150001E-03    1.0000000E-24
 -3.6800001E-03    1.0000004E-24
 -3.6450000E-03    1.0000005E-24
 -3.6100000E-03    9.9999982E-25
 -3.5750000E-03    9.9999963E-25
 -3.5399999E-03    1.0000004E-24
 -3.5049999E-03    1.0000003E-24
 -3.4700001E-03    9.9999972E-25
 -3.4350001E-03    1.0000000E-24
 -3.4000000E-03    1.0000005E-24
 -3.3650000E-03    1.0000001E-24
 -3.3300000E-03    9.9999992E-25
 -3.2949999E-03    1.0000001E-24
 -3.2599999E-03    1.0000000E-24
 -3.2250001E-03    9.9999972E-25
 -3.1900001E-03    9.9999992E-25
 -3.1550000E-03    1.0000004E-24
 -3.1200000E-03    1.0000004E-24
 -3.0850000E-03    1.0000002E-24
 -3.0499999E-03    1.0000003E-24
 -3.0149999E-03    1.0000000E-24
 -2.9800001E-03    9.9999943E-25
 -2.9450001E-03    9.9999982E-25
 -2.9100000E-03    1.0000006E-24
 -2.8750000E-03    1.0000006E-24
 -2.8400000E-03    1.0000000E-24
 -2.8049999E-03    1.0000000E-24
 -2.7699999E-03    1.0000004E-24
 -2.7350001E-03    1.0000003E-24
 -2.7000001E-03    9.9999972E-25
 -2.6650000E-03    9.9999963E-25
 -2.6300000E-03    1.0000002E-24
 -2.5950000E-03    1.0000007E-24
 -2.5599999E-03    1.0000005E-24
 -2.5249999E-03    9.9999982E-25
 -2.4900001E-03    1.0000001E-24
 -2.4550001E-03    1.0000004E-24
 -2.4200000E-03    1.0000003E-24
 -2.3850000E-03    1.0000004E-24
 -2.3500000E-03    9.9999992E-25
 -2.3149999E-03    9.9999943E-25
 -2.2799999E-03    1.0000000E-24
 -2.2450001E-03    1.0000004E-24
 -2.2100001E-03    1.0000002E-24
 -2.1750000E-03    1.0000004E-24
 -2.1400000E-03    1.0000003E-24
 -2.1050000E-03    9.9999972E-25
 -2.0699999E-03    9.9999963E-25
 -2.0349999E-03    1.0000004E-24
 -2.0000001E-03    1.0000009E-24
 -1.9650001E-03    1.0000001E-24
 -1.9300000E-03    9.9999992E-25
 -1.8950000E-03    1.0000004E-24
 -1.8600000E-03    1.0000000E-24
 -1.8250000E-03    9.9999923E-25
 -1.7900000E-03    9.9999982E-25
 -1.7550000E-03    1.0000010E-24
 -1.7199999E-03    1.0000010E-24
 -1.6850000E-03    9.9999953E-25
 -1.6500000E-03    9.9999923E-25
 -1.6150000E-03    1.0000002E-24
 -1.5800000E-03    1.0000004E-24
 -1.5450000E-03    9.9999992E-25
 -1.5100000E-03    9.9999982E-25
 -1.4750001E-03    1.0000001E-24
 -1.4400000E-03    1.0000000E-24
 -1.4050000E-03    1.0000002E-24
 -1.3700000E-03    1.0000009E-24
 -1.3350000E-03    1.0000009E-24
 -1.3000000E-03    9.9999992E-25
 -1.2650000E-03    9.9999884E-25
 -1.2300001E-03    9.9999893E-25
 -1.1950000E-03    1.0000003E-24
 -1.1600000E-03    1.0000010E-24
 -1.1250000E-03    1.0000004E-24
 -1.0900000E-03    1.0000003E-24
 -1.0550000E-03    1.0000001E-24
 -1.0200000E-03    9.9999913E-25
 -9.8500005E-04    9.9999963E-25
 -9.5000002E-04    1.0000015E-24
 -9.1499998E-04    1.0000013E-24
 -8.8000001E-04    9.9999992E-25
 -8.4499997E-04    9.9999963E-25
 -8.1000000E-04    9.9999992E-25
 -7.7500002E-04    9.9999943E-25
 -7.3999999E-04    9.9999933E-25
 -7.0500001E-04    1.0000007E-24
 -6.6999998E-04    1.0000011E-24
 -6.3500000E-04    1.0000006E-24
 -6.0000003E-04    1.0000000E-24
 -5.6499999E-04    9.9999953E-25
 -5.3000002E-04    9.9999893E-25
 -4.9499999E-04    9.9999992E-25
 -4.6000001E-04    1.0000012E-24
 -4.2500001E-04    1.0000008E-24
 -3.9000000E-04    9.9999943E-25
 -3.5500000E-04    9.9999874E-25
 -3.1999999E-04    9.9999943E-25
 -2.8499999E-04    1.0000009E-24
 -2.5000001E-04    1.0000015E-24
 -2.1499999E-04    9.9999992E-25
 -1.8000000E-04    9.9999893E-25
 -1.4500000E-04    1.0000005E-24
 -1.1000000E-04    1.0000011E-24
 -7.5000004E-05    1.0000002E-24
 -3.9999999E-05    1.0000005E-24
 -4.9999999E-06    1.0000008E-24
  2.9999999E-05    9.9999933E-25
  6.5000000E-05    9.9999923E-25
  9.9999997E-05    1.0000007E-24
  1.3499999E-04    1.0000002E-24
  1.7000000E-04    9.9999953E-25
  2.0500000E-04    1.0000003E-24
  2.3999999E-04    1.0000004E-24
  2.7500000E-04    1.0000003E-24
  3.1000000E-04    1.0000005E-24
  3.4500001E-04    9.9999815E-25
  3.8000001E-04    9.9999677E-25
  4.1499999E-04    1.0000022E-24
  4.4999999E-04    1.0000065E-24
  4.8500000E-04    9.9999765E-25
  5.2000000E-04    9.9999045E-25
  5.5499998E-04    1.0000083E-24
  5.9000001E-04    1.0000204E-24
  6.2499999E-04    9.9997931E-25
  6.6000002E-04    9.9995308E-25
  6.9500000E-04    1.0000439E-24
  7.3000003E-04    1.0001037E-24
  7.6500000E-04    9.9991039E-25
  7.9999998E-04    9.9977756E-25
  8.3500001E-04    1.0001777E-24
  8.6999999E-04    1.0004715E-24
  9.0500002E-04    9.9966919E-25
  9.4000000E-04    9.9901966E-25
  9.7499997E-04    1.0005765E-24
  1.0100000E-03    1.0020141E-24
  1.0450000E-03    9.9908563E-25
  1.0800000E-03    9.9591549E-25
  1.1150000E-03    1.0012448E-24
  1.1500000E-03    1.0081442E-24
  1.1849999E-03    9.9880519E-25
  1.2200000E-03    9.8410713E-25
  1.2550000E-03    9.9972214E-25
  1.2900000E-03    1.0302240E-24
  1.3250000E-03    1.0057716E-24
  1.3600000E-03    9.4426917E-25
  1.3950000E-03    9.7878725E-25
  1.4299999E-03    1.0991147E-24
  1.4650000E-03    1.0592840E-24
  1.5000000E-03    8.3111170E-25
  1.5350000E-03    8.5441791E-25
  1.5700000E-03    1.2730114E-24
  1.6050000E-03    1.3289672E-24
  1.6400000E-03    5.8854846E-25
  1.6749999E-03    3.0243596E-25
  1.7100000E-03    1.5577716E-24
  1.7450000E-03    2.4009678E-24
  1.7800000E-03    3.8107770E-25
  1.8150000E-03   -1.6759936E-24
  1.8500000E-03    1.3550271E-24
  1.8850000E-03    5.8651741E-24
  1.9200000E-03    1.7686646E-24
  1.9550000E-03   -7.3999484E-24
  1.9900000E-03   -2.8357532E-24
  2.0250001E-03    1.4686861E-23
  2.0600001E-03    1.1881055E-23
  2.0949999E-03   -1.9775478E-23
  2.1299999E-03   -2.4470199E-23
  2.1650000E-03    2.9591110E-23
  2.2000000E-03    5.4426392E-23
  2.2350000E-03   -3.2374198E-23
  2.2700001E-03   -1.0252564E-22
  2.3050001E-03    2.6790770E-23
  2.3399999E-03    1.8866305E-22
  2.3749999E-03    1.4996519E-23
  2.4100000E-03   -3.1841614E-22
  2.4450000E-03   -1.2307263E-22
  2.4800000E-03    5.0992231E-22
  2.5150001E-03    3.7282894E-22
  2.5500001E-03   -7.4949692E-22
  2.5849999E-03   -8.6680309E-22
  2.6199999E-03    9.9832329E-22
  2.6550000E-03    1.7803001E-21
  2.6900000E-03   -1.1142248E-21
  2.7250000E-03   -3.3348859E-21
  2.7600001E-03    8.0659616E-22
  2.7950001E-03    5.8113477E-21
  2.8299999E-03    5.1293816E-22
  2.8649999E-03   -9.4441723E-21
  2.9000000E-03   -3.8596219E-21
  2.9350000E-03    1.4276945E-20
  2.9700000E-03    1.0899046E-20
  3.0050001E-03   -1.9779116E-20
  3.0400001E-03   -2.4087593E-20
  3.0749999E-03    2.4259335E-20
  3.1099999E-03    4.6744309E-20
  3.1450000E-03   -2.3848858E-20
  3.1800000E-03   -8.2710591E-20
  3.2150000E-03    1.1114393E-20
  3.2500001E-03    1.3536636E-19
  3.2850001E-03    2.6787527E-20
  3.3199999E-03   -2.0533499E-19
  3.3549999E-03   -1.1000644E-19
  3.3900000E-03    2.8630466E-19
  3.4250000E-03    2.6736602E-19
  3.4600000E-03   -3.5804471E-19
  3.4950001E-03   -5.3567679E-19
  3.5300001E-03    3.7613712E-19
  3.5649999E-03    9.5477064E-19
  3.5999999E-03   -2.5834259E-19
  3.6350000E-03   -1.5546179E-18
  3.6700000E-03   -1.3076154E-19
  3.7050000E-03    2.3300816E-18
  3.7400001E-03    9.9283563E-19
  3.7750001E-03   -3.1980711E-18
  3.8099999E-03   -2.5981102E-18
  3.8449999E-03    3.9332471E-18
  3.8800000E-03    5.2633668E-18
  3.9149998E-03   -4.0820094E-18
  3.9499998E-03   -9.2850362E-18
  3.9849998E-03    2.8633730E-18
  4.0199999E-03    1.4801861E-17
  4.0549999E-03    9.2039229E-19
  4.0899999E-03   -2.1558997E-17
  4.1250000E-03   -8.9177548E-18
  4.1600000E-03    2.8553342E-17
  4.1950000E-03    2.3133515E-17
  4.2300001E-03   -3.3561606E-17
  4.2650001E-03   -4.5600766E-17
  4.3000001E-03    3.2598864E-17
  4.3350002E-03    7.7692171E-17
  4.3700002E-03   -1.9429617E-17
  4.4049998E-03   -1.1894108E-16
  4.4399998E-03   -1.4641515E-17
  4.4749998E-03    1.6529047E-16
  4.5099999E-03    8.0343497E-17
  4.5449999E-03   -2.0680696E-16
  4.5799999E-03   -1.8889834E-16
  4.6150000E-03    2.2512031E-16
  4.6500000E-03    3.4881116E-16
  4.6850001E-03   -1.9118906E-16
  4.7200001E-03   -5.6048848E-16
  4.7550001E-03    6.4441982E-17
  4.7900002E-03    8.0844763E-16
  4.8250002E-03    2.0516379E-16
  4.8600002E-03   -1.0514617E-15
  4.8949998E-03   -6.7021482E-16
  4.9299998E-03    1.2119717E-15
  4.9649999E-03    1.3719705E-15
  4.9999999E-03   -1.1674616E-15
  5.0349999E-03   -2.3179114E-15
  5.0700000E-03    7.4816064E-16
  5.1050000E-03    3.4504198E-15
  5.1400000E-03    2.5293748E-16
  5.1750001E-03   -4.6088536E-15
  5.2100001E-03   -2.0506985E-15
  5.2450001E-03    5.4910639E-15
  5.2800002E-03    4.8124973E-15
  5.3150002E-03   -5.6253474E-15
  5.3500002E-03   -8.5727950E-15
  5.3849998E-03    4.3691078E-15
  5.4199998E-03    1.3119527E-14
  5.4549999E-03   -9.5469655E-16
  5.4899999E-03   -1.7863549E-14
  5.5249999E-03   -5.3952467E-15
  5.5600000E-03    2.1715807E-14
  5.5950000E-03    1.5265299E-14
  5.6300000E-03   -2.3011915E-14
  5.6650001E-03   -2.8751483E-14
  5.7000001E-03    1.9538614E-14
  5.7350001E-03    4.5088502E-14
  5.7700002E-03   -8.7244292E-15
  5.8050002E-03   -6.2248485E-14
  5.8400002E-03   -1.1946109E-14
  5.8749998E-03    7.6598057E-14
  5.9099998E-03    4.4257055E-14
  5.9449999E-03   -8.2741905E-14
  5.9799999E-03   -8.8330967E-14
  6.0149999E-03    7.3712554E-14
  6.0500000E-03    1.4152351E-13
  6.0850000E-03   -4.1674441E-14
  6.1200000E-03   -1.9731486E-13
  6.1550001E-03   -2.0718841E-14
  6.1900001E-03    2.4447791E-13
  6.2250001E-03    1.1826683E-13
  6.2600002E-03   -2.6689024E-13
  6.2950002E-03   -2.5056012E-13
  6.3299998E-03    2.4440557E-13
  6.3649998E-03    4.0901053E-13
  6.3999998E-03   -1.5517542E-13
  6.4349999E-03   -5.7410690E-13
  6.4699999E-03   -2.0317496E-14
  6.5049999E-03    7.1367467E-13
  6.5400000E-03    2.9352443E-13
  6.5750000E-03   -7.8309803E-13
  6.6100000E-03   -6.6082410E-13
  6.6450001E-03    7.2850986E-13
  6.6800001E-03    1.0962104E-12
  6.7150001E-03   -4.9374036E-13
  6.7500002E-03   -1.5451918E-12
  6.7850002E-03    3.1341977E-14
  6.8199998E-03    1.9218448E-12
  6.8549998E-03    6.8271202E-13
  6.8899998E-03   -2.1112378E-12
  6.9249999E-03   -1.6320619E-12
  6.9599999E-03    1.9793522E-12
  6.9949999E-03    2.7433320E-12
  7.0300000E-03   -1.3920322E-12
  7.0650000E-03   -3.8737251E-12
  7.1000000E-03    2.4312632E-13
  7.1350001E-03    4.8076265E-12
  7.1700001E-03    1.5100861E-12
  7.2050001E-03   -5.2670941E-12
  7.2400002E-03   -3.8085572E-12
  7.2750002E-03    4.9401295E-12
  7.3099998E-03    6.4568446E-12
  7.3449998E-03   -3.5288090E-12
  7.3799998E-03   -9.1010003E-12
  7.4149999E-03    8.1634488E-13
  7.4499999E-03    1.1229442E-11
  7.4850000E-03    3.2524528E-12
  7.5200000E-03   -1.2207466E-11
  7.5550000E-03   -8.4888338E-12
  7.5900001E-03    1.1353074E-11
  7.6250001E-03    1.4393566E-11
  7.6600001E-03   -8.0551728E-12
  7.6950002E-03   -2.0127068E-11
  7.7300002E-03    1.9262686E-12
  7.7650002E-03    2.4537091E-11
  7.7999998E-03    7.0275036E-12
  7.8349998E-03   -2.6261953E-11
  7.8699999E-03   -1.8246812E-11
  7.9049999E-03    2.3920352E-11
  7.9399999E-03    3.0508457E-11
  7.9750000E-03   -1.6385034E-11
  8.0100000E-03   -4.1911610E-11
  8.0450000E-03    3.1135491E-12
  8.0800001E-03    5.0005222E-11
  8.1150001E-03    1.5517993E-11
  8.1500001E-03   -5.2082588E-11
  8.1850002E-03   -3.7952381E-11
  8.2200002E-03    4.5637581E-11
  8.2550002E-03    6.1340565E-11
  8.2900003E-03   -2.8944194E-11
  8.3250003E-03   -8.1660061E-11
  8.3600003E-03    1.6849363E-12
  8.3950004E-03    9.4127268E-11
  8.4300004E-03    3.4493242E-11
  8.4650004E-03   -9.3928580E-11
  8.5000005E-03   -7.5657994E-11
  8.5349996E-03    7.7217503E-11
  8.5699996E-03    1.1567598E-10
  8.6049996E-03   -4.2222829E-11
  8.6399997E-03   -1.4681484E-10
  8.6749997E-03   -9.7621460E-12
  8.7099997E-03    1.6087075E-10
  8.7449998E-03    7.3763440E-11
  8.7799998E-03   -1.5072013E-10
  8.8149998E-03   -1.4111420E-10
  8.8499999E-03    1.1209250E-10
  8.8849999E-03    2.0024050E-10
  8.9199999E-03   -4.5237199E-11
  8.9550000E-03   -2.3832861E-10
  8.9900000E-03   -4.3960079E-11
  9.0250000E-03    2.4374422E-10
  9.0600001E-03    1.4387752E-10
  9.0950001E-03   -2.0878171E-10
  9.1300001E-03   -2.3836108E-10
  9.1650002E-03    1.3211680E-10
  9.2000002E-03    3.0919581E-10
  9.2350002E-03   -2.0325427E-11
  9.2700003E-03   -3.3949252E-10
  9.3050003E-03   -1.1201229E-10
  9.3400003E-03    3.1743275E-10
  9.3750004E-03    2.4391417E-10
  9.4100004E-03   -2.3964591E-10
  9.4450004E-03   -3.5135411E-10
  9.4799995E-03    1.1332341E-10
  9.5149996E-03    4.1198253E-10
  9.5499996E-03    4.3806018E-11
  9.5849996E-03   -4.1023193E-10
  9.6199997E-03   -2.0606447E-10
  9.6549997E-03    3.4144035E-10
  9.6899997E-03    3.4459513E-10
  9.7249998E-03   -2.1380575E-10
  9.7599998E-03   -4.3324713E-10
  9.7949998E-03    4.7598508E-11
  9.8299999E-03    4.5428444E-10
  9.8649999E-03    1.2832149E-10
  9.8999999E-03   -4.0271689E-10
  9.9350000E-03   -2.8221367E-10
  9.9700000E-03    2.8812819E-10
  1.0005000E-02    3.8641421E-10
  1.0040000E-02   -1.3309374E-10
  1.0075000E-02   -4.2385270E-10
  1.0110000E-02   -3.1908219E-11
  1.0145000E-02    3.9207834E-10
  1.0180000E-02    1.7584655E-10
  1.0215000E-02   -3.0338013E-10
  1.0250000E-02   -2.7450284E-10
  1.0285000E-02    1.8104135E-10
  1.0320000E-02    3.1570455E-10
  1.0355000E-02   -5.3066034E-11
  1.0390000E-02   -3.0126360E-10
  1.0425000E-02   -5.4871805E-11
  1.0460000E-02    2.4541355E-10
  1.0495000E-02    1.2563592E-10
  1.0530000E-02   -1.7011792E-10
  1.0565000E-02   -1.5447525E-10
  1.0600000E-02    9.8241984E-11
  1.0635000E-02    1.4917433E-10
  1.0670000E-02   -4.6523861E-11
  1.0705000E-02   -1.2609624E-10
  1.0740000E-02    2.0913202E-11
  1.0775000E-02    1.0347711E-10
  1.0810000E-02   -1.6100538E-11
  1.0845000E-02   -9.4742512E-11
  1.0880000E-02    1.9022209E-11
  1.0915000E-02    1.0430610E-10
  1.0950000E-02   -1.4475162E-11
  1.0985000E-02   -1.2673093E-10
  1.1020000E-02   -9.1513845E-12
  1.1055000E-02    1.4895453E-10
  1.1090000E-02    5.5462454E-11
  1.1125000E-02   -1.5482463E-10
  1.1160000E-02   -1.1797481E-10
  1.1195000E-02    1.3098216E-10
  1.1230000E-02    1.8126432E-10
  1.1265000E-02   -7.2531141E-11
  1.1300000E-02   -2.2585235E-10
  1.1335000E-02   -1.4327488E-11
  1.1370000E-02    2.3472094E-10
  1.1405000E-02    1.1384728E-10
  1.1440000E-02   -1.9816856E-10
  1.1475000E-02   -2.0413043E-10
  1.1510000E-02    1.1738603E-10
  1.1545000E-02    2.6253252E-10
  1.1580000E-02   -5.6249788E-12
  1.1615000E-02   -2.7265329E-10
  1.1650000E-02   -1.1564431E-10
  1.1685000E-02    2.2769643E-10
  1.1720000E-02    2.2047296E-10
  1.1755000E-02   -1.3376160E-10
  1.1790000E-02   -2.8525379E-10
  1.1825000E-02    9.6293763E-12
  1.1860000E-02    2.9801264E-10
  1.1895000E-02    1.2439044E-10
  1.1930000E-02   -2.5234748E-10
  1.1965000E-02   -2.4333066E-10
  1.2000000E-02    1.5245519E-10
  1.2035000E-02    3.2177672E-10
  1.2070000E-02   -1.7964942E-11
  1.2105000E-02   -3.5108103E-10
  1.2140000E-02   -1.4190310E-10
  1.2175000E-02    3.0758227E-10
  1.2210000E-02    2.8920827E-10
  1.2245000E-02   -1.9539791E-10
  1.2280000E-02   -3.8780176E-10
  1.2315000E-02    4.8341241E-11
  1.2350000E-02    4.4902002E-10
  1.2385000E-02    1.6277296E-10
  1.2420000E-02   -3.8599737E-10
  1.2455000E-02   -3.2331066E-10
  1.2490000E-02    2.7465888E-10
  1.2525000E-02    4.5650070E-10
  1.2560000E-02   -1.0098425E-10
  1.2595000E-02   -5.5094718E-10
  1.2630000E-02   -2.0722388E-10
  1.2665000E-02    3.6057435E-10
  1.2700000E-02    2.2481747E-10
  1.2735000E-02   -4.4804677E-10
  1.2770000E-02   -6.9084155E-10
  1.2805000E-02   -2.5552493E-10
  1.2840000E-02    4.7622017E-11
  1.2875000E-02   -3.7257464E-10
  1.2910000E-02   -1.0516308E-09
  1.2945000E-02   -1.2653090E-09
  1.2980000E-02   -1.1008295E-09
  1.3015000E-02   -1.2363253E-09
  1.3050000E-02   -1.9440911E-09
  1.3085000E-02   -2.8151426E-09
  1.3120000E-02   -3.4256347E-09
  1.3155000E-02   -3.8878536E-09
  1.3190000E-02   -4.6392405E-09
  1.3225000E-02   -5.9072054E-09
  1.3260000E-02   -7.5186382E-09
  1.3295000E-02   -9.1713526E-09
  1.3330000E-02   -1.0831777E-08
  1.3365000E-02   -1.2865055E-08
  1.3400000E-02   -1.5714605E-08
  1.3435000E-02   -1.9407228E-08
  1.3470000E-02   -2.3532053E-08
  1.3505000E-02   -2.7906932E-08
  1.3540000E-02   -3.3099841E-08
  1.3575000E-02   -3.9887215E-08
  1.3610000E-02   -4.8248108E-08
  1.3645000E-02   -5.7496340E-08
  1.3680000E-02   -6.7609371E-08
  1.3715000E-02   -7.9730057E-08
  1.3750000E-02   -9.4832252E-08
  1.3785000E-02   -1.1255809E-07
  1.3820000E-02   -1.3225089E-07
  1.3855000E-02   -1.5467803E-07
  1.3890000E-02   -1.8159722E-07
  1.3925000E-02   -2.1376657E-07
  1.3960000E-02   -2.5065683E-07
  1.3995000E-02   -2.9237432E-07
  1.4030000E-02   -3.4065403E-07
  1.4065000E-02   -3.9737412E-07
  1.4100000E-02   -4.6310831E-07
  1.4135000E-02   -5.3797629E-07
  1.4170000E-02   -6.2324489E-07
  1.4205000E-02   -7.2122720E-07
  1.4240000E-02   -8.3399692E-07
  1.4275000E-02   -9.6300039E-07
  1.4310000E-02   -1.1098264E-06
  1.4345000E-02   -1.2768293E-06
  1.4380000E-02   -1.4670588E-06
  1.4415000E-02   -1.6839037E-06
  1.4450000E-02   -1.9307063E-06
  1.4485000E-02   -2.2106219E-06
  1.4520000E-02   -2.5271652E-06
  1.4555000E-02   -2.8850120E-06
  1.4590000E-02   -3.2898229E-06
  1.4625000E-02   -3.7470936E-06
  1.4660000E-02   -4.2618180E-06
  1.4695000E-02   -4.8397633E-06
  1.4730000E-02   -5.4886018E-06
  1.4765000E-02   -6.2171584E-06
  1.4800000E-02   -7.0339370E-06
  1.4835000E-02   -7.9472729E-06
  1.4870000E-02   -8.9670220E-06
  1.4905000E-02   -1.0105336E-05
  1.4940000E-02   -1.1375366E-05
  1.4975000E-02   -1.2789877E-05
  1.5010000E-02   -1.4361993E-05
  1.5045000E-02   -1.6107142E-05
  1.5080000E-02   -1.8043247E-05
  1.5115000E-02   -2.0188720E-05
  1.5150000E-02   -2.2561584E-05
  1.5185000E-02   -2.5181556E-05
  1.5220000E-02   -2.8071903E-05
  1.5255000E-02   -3.1257867E-05
  1.5290000E-02   -3.4764322E-05
  1.5325000E-02   -3.8617069E-05
  1.5360000E-02   -4.2845910E-05
  1.5395000E-02   -4.7484118E-05
  1.5430000E-02   -5.2565036E-05
  1.5465000E-02   -5.8121903E-05
  1.5500000E-02   -6.4191510E-05
  1.5535000E-02   -7.0815353E-05
  1.5570000E-02   -7.8036152E-05
  1.5605000E-02   -8.5895874E-05
  1.5640000E-02   -9.4438677E-05
  1.5675001E-02   -1.0371365E-04
  1.5710000E-02   -1.1377304E-04
  1.5745001E-02   -1.2466926E-04
  1.5780000E-02   -1.3645572E-04
  1.5814999E-02   -1.4918942E-04
  1.5850000E-02   -1.6293126E-04
  1.5884999E-02   -1.7774419E-04
  1.5920000E-02   -1.9369216E-04
  1.5954999E-02   -2.1084027E-04
  1.5990000E-02   -2.2925627E-04
  1.6024999E-02   -2.4901089E-04
  1.6060000E-02   -2.7017650E-04
  1.6094999E-02   -2.9282548E-04
  1.6130000E-02   -3.1703044E-04
  1.6164999E-02   -3.4286614E-04
  1.6200000E-02   -3.7040951E-04
  1.6235000E-02   -3.9973768E-04
  1.6270000E-02   -4.3092651E-04
  1.6305000E-02   -4.6405167E-04
  1.6340001E-02   -4.9918989E-04
  1.6375000E-02   -5.3641776E-04
  1.6410001E-02   -5.7581009E-04
  1.6445000E-02   -6.1743957E-04
  1.6480001E-02   -6.6137710E-04
  1.6515000E-02   -7.0769031E-04
  1.6550001E-02   -7.5644482E-04
  1.6585000E-02   -8.0770312E-04
  1.6620001E-02   -8.6152228E-04
  1.6655000E-02   -9.1795373E-04
  1.6690001E-02   -9.7704376E-04
  1.6725000E-02   -1.0388343E-03
  1.6759999E-02   -1.1033601E-03
  1.6795000E-02   -1.1706474E-03
  1.6829999E-02   -1.2407147E-03
  1.6865000E-02   -1.3135716E-03
  1.6899999E-02   -1.3892208E-03
  1.6935000E-02   -1.4676532E-03
  1.6969999E-02   -1.5488468E-03
  1.7005000E-02   -1.6327697E-03
  1.7039999E-02   -1.7193789E-03
  1.7075000E-02   -1.8086170E-03
  1.7109999E-02   -1.9004141E-03
  1.7145000E-02   -1.9946843E-03
  1.7180000E-02   -2.0913272E-03
  1.7215000E-02   -2.1902269E-03
  1.7250000E-02   -2.2912540E-03
  1.7285001E-02   -2.3942608E-03
  1.7320000E-02   -2.4990812E-03
  1.7355001E-02   -2.6055302E-03
  1.7390000E-02   -2.7134100E-03
  1.7425001E-02   -2.8225034E-03
  1.7460000E-02   -2.9325732E-03
  1.7495001E-02   -3.0433636E-03
  1.7530000E-02   -3.1546026E-03
  1.7565001E-02   -3.2659983E-03
  1.7600000E-02   -3.3772388E-03
  1.7635001E-02   -3.4879979E-03
  1.7670000E-02   -3.5979350E-03
  1.7704999E-02   -3.7066853E-03
  1.7740000E-02   -3.8138675E-03
  1.7774999E-02   -3.9190878E-03
  1.7810000E-02   -4.0219384E-03
  1.7844999E-02   -4.1219974E-03
  1.7880000E-02   -4.2188265E-03
  1.7914999E-02   -4.3119751E-03
  1.7950000E-02   -4.4009839E-03
  1.7984999E-02   -4.4853906E-03
  1.8020000E-02   -4.5647151E-03
  1.8054999E-02   -4.6384758E-03
  1.8090000E-02   -4.7061872E-03
  1.8124999E-02   -4.7673625E-03
  1.8160000E-02   -4.8215152E-03
  1.8195000E-02   -4.8681637E-03
  1.8230001E-02   -4.9068234E-03
  1.8265000E-02   -4.9370201E-03
  1.8300001E-02   -4.9582892E-03
  1.8335000E-02   -4.9701803E-03
  1.8370001E-02   -4.9722539E-03
  1.8405000E-02   -4.9640844E-03
  1.8440001E-02   -4.9452689E-03
  1.8475000E-02   -4.9154302E-03
  1.8510001E-02   -4.8742117E-03
  1.8545000E-02   -4.8212884E-03
  1.8580001E-02   -4.7563622E-03
  1.8615000E-02   -4.6791621E-03
  1.8650001E-02   -4.5894585E-03
  1.8685000E-02   -4.4870609E-03
  1.8719999E-02   -4.3718237E-03
  1.8755000E-02   -4.2436379E-03
  1.8789999E-02   -4.1024359E-03
  1.8825000E-02   -3.9481996E-03
  1.8859999E-02   -3.7809641E-03
  1.8895000E-02   -3.6008179E-03
  1.8929999E-02   -3.4078963E-03
  1.8965000E-02   -3.2023832E-03
  1.8999999E-02   -2.9845226E-03
  1.9035000E-02   -2.7546203E-03
  1.9069999E-02   -2.5130343E-03
  1.9105000E-02   -2.2601739E-03
  1.9140000E-02   -1.9965090E-03
  1.9175000E-02   -1.7225677E-03
  1.9210000E-02   -1.4389317E-03
  1.9245001E-02   -1.1462396E-03
  1.9280000E-02   -8.4518746E-04
  1.9315001E-02   -5.3651998E-04
  1.9350000E-02   -2.2102692E-04
  1.9385001E-02    1.0044537E-04
  1.9420000E-02    4.2699720E-04
  1.9455001E-02    7.5769599E-04
  1.9490000E-02    1.0915727E-03
  1.9525001E-02    1.4276096E-03
  1.9560000E-02    1.7647543E-03
  1.9595001E-02    2.1019352E-03
  1.9630000E-02    2.4380558E-03
  1.9664999E-02    2.7719936E-03
  1.9700000E-02    3.1026062E-03
  1.9734999E-02    3.4287414E-03
  1.9770000E-02    3.7492465E-03
  1.9804999E-02    4.0629734E-03
  1.9840000E-02    4.3687727E-03
  1.9874999E-02    4.6655019E-03
  1.9910000E-02    4.9520382E-03
  1.9944999E-02    5.2272817E-03
  1.9980000E-02    5.4901605E-03
  2.0014999E-02    5.7396381E-03
  2.0050000E-02    5.9747184E-03
  2.0085000E-02    6.1944518E-03
  2.0120000E-02    6.3979379E-03
  2.0155000E-02    6.5843244E-03
  2.0190001E-02    6.7528309E-03
  2.0225000E-02    6.9027510E-03
  2.0260001E-02    7.0334356E-03
  2.0295000E-02    7.1443096E-03
  2.0330001E-02    7.2348900E-03
  2.0365000E-02    7.3047793E-03
  2.0400001E-02    7.3536597E-03
  2.0435000E-02    7.3813037E-03
  2.0470001E-02    7.3875780E-03
  2.0505000E-02    7.3724450E-03
  2.0540001E-02    7.3359632E-03
  2.0575000E-02    7.2782878E-03
  2.0609999E-02    7.1996721E-03
  2.0645000E-02    7.1004718E-03
  2.0679999E-02    6.9811312E-03
  2.0715000E-02    6.8421895E-03
  2.0749999E-02    6.6842916E-03
  2.0785000E-02    6.5081692E-03
  2.0819999E-02    6.3146292E-03
  2.0855000E-02    6.1045736E-03
  2.0889999E-02    5.8789966E-03
  2.0925000E-02    5.6389538E-03
  2.0959999E-02    5.3855698E-03
  2.0995000E-02    5.1200450E-03
  2.1029999E-02    4.8436387E-03
  2.1065000E-02    4.5576501E-03
  2.1100000E-02    4.2634392E-03
  2.1135001E-02    3.9623990E-03
  2.1170000E-02    3.6559482E-03
  2.1205001E-02    3.3455389E-03
  2.1240000E-02    3.0326331E-03
  2.1275001E-02    2.7186899E-03
  2.1310000E-02    2.4051855E-03
  2.1345001E-02    2.0935875E-03
  2.1380000E-02    1.7853213E-03
  2.1415001E-02    1.4817968E-03
  2.1450000E-02    1.1844006E-03
  2.1485001E-02    8.9445908E-04
  2.1520000E-02    6.1325479E-04
  2.1555001E-02    3.4202659E-04
  2.1590000E-02    8.1927901E-05
  2.1624999E-02   -1.6596436E-04
  2.1660000E-02   -4.0063538E-04
  2.1694999E-02   -6.2116474E-04
  2.1730000E-02   -8.2672766E-04
  2.1764999E-02   -1.0165796E-03
  2.1800000E-02   -1.1900819E-03
  2.1834999E-02   -1.3467076E-03
  2.1870000E-02   -1.4860298E-03
  2.1904999E-02   -1.6077344E-03
  2.1940000E-02   -1.7116159E-03
  2.1974999E-02   -1.7975710E-03
  2.2010000E-02   -1.8656183E-03
  2.2045000E-02   -1.9158893E-03
  2.2080000E-02   -1.9486130E-03
  2.2115000E-02   -1.9641283E-03
  2.2150001E-02   -1.9628862E-03
  2.2185000E-02   -1.9454344E-03
  2.2220001E-02   -1.9124147E-03
  2.2255000E-02   -1.8645541E-03
  2.2290001E-02   -1.8026688E-03
  2.2325000E-02   -1.7276671E-03
  2.2360001E-02   -1.6405154E-03
  2.2395000E-02   -1.5422329E-03
  2.2430001E-02   -1.4339205E-03
  2.2465000E-02   -1.3167276E-03
  2.2500001E-02   -1.1918179E-03
  2.2535000E-02   -1.0604011E-03
  2.2569999E-02   -9.2372618E-04
  2.2605000E-02   -7.8303640E-04
  2.2639999E-02   -6.3957809E-04
  2.2675000E-02   -4.9460120E-04
  2.2709999E-02   -3.4933511E-04
  2.2745000E-02   -2.0499389E-04
  2.2779999E-02   -6.2762156E-05
  2.2815000E-02    7.6230353E-05
  2.2849999E-02    2.1089028E-04
  2.2885000E-02    3.4017468E-04
  2.2919999E-02    4.6312768E-04
  2.2955000E-02    5.7885068E-04
  2.2990000E-02    6.8649690E-04
  2.3025000E-02    7.8532845E-04
  2.3060000E-02    8.7470672E-04
  2.3095001E-02    9.5405552E-04
  2.3130000E-02    1.0228945E-03
  2.3165001E-02    1.0808578E-03
  2.3200000E-02    1.1276678E-03
  2.3235001E-02    1.1631431E-03
  2.3270000E-02    1.1872061E-03
  2.3305001E-02    1.1998758E-03
  2.3340000E-02    1.2012707E-03
  2.3375001E-02    1.1916059E-03
  2.3410000E-02    1.1711844E-03
  2.3445001E-02    1.1404038E-03
  2.3480000E-02    1.0997446E-03
  2.3514999E-02    1.0497528E-03
  2.3550000E-02    9.9105784E-04
  2.3584999E-02    9.2437241E-04
  2.3620000E-02    8.5045240E-04
  2.3654999E-02    7.7008922E-04
  2.3690000E-02    6.8413501E-04
  2.3724999E-02    5.9349573E-04
  2.3760000E-02    4.9909705E-04
  2.3794999E-02    4.0187140E-04
  2.3830000E-02    3.0276438E-04
  2.3864999E-02    2.0273398E-04
  2.3900000E-02    1.0273090E-04
  2.3934999E-02    3.6852200E-06
  2.3970000E-02   -9.3488045E-05
  2.4005000E-02   -1.8789756E-04
  2.4040001E-02   -2.7870366E-04
  2.4075000E-02   -3.6512045E-04
  2.4110001E-02   -4.4639868E-04
  2.4145000E-02   -5.2184099E-04
  2.4180001E-02   -5.9082813E-04
  2.4215000E-02   -6.5281242E-04
  2.4250001E-02   -7.0730702E-04
  2.4285000E-02   -7.5390498E-04
  2.4320001E-02   -7.9228997E-04
  2.4355000E-02   -8.2222361E-04
  2.4390001E-02   -8.4354501E-04
  2.4425000E-02   -8.5618370E-04
  2.4460001E-02   -8.6015288E-04
  2.4495000E-02   -8.5554377E-04
  2.4529999E-02   -8.4253453E-04
  2.4565000E-02   -8.2138472E-04
  2.4599999E-02   -7.9242332E-04
  2.4635000E-02   -7.5604900E-04
  2.4669999E-02   -7.1272999E-04
  2.4705000E-02   -6.6299859E-04
  2.4739999E-02   -6.0744816E-04
  2.4775000E-02   -5.4671883E-04
  2.4809999E-02   -4.8148583E-04
  2.4845000E-02   -4.1246295E-04
  2.4879999E-02   -3.4039715E-04
  2.4915000E-02   -2.6605561E-04
  2.4950000E-02   -1.9022201E-04
  2.4985000E-02   -1.1368601E-04
  2.5020000E-02   -3.7224399E-05
  2.5055001E-02    3.8396836E-05
  2.5090000E-02    1.1241502E-04
  2.5125001E-02    1.8408983E-04
  2.5160000E-02    2.5272567E-04
  2.5195001E-02    3.1767105E-04
  2.5230000E-02    3.7831120E-04
  2.5265001E-02    4.3407682E-04
  2.5300000E-02    4.8445989E-04
  2.5335001E-02    5.2901375E-04
  2.5370000E-02    5.6734978E-04
  2.5405001E-02    5.9915276E-04
  2.5440000E-02    6.2418770E-04
  2.5474999E-02    6.4228190E-04
  2.5510000E-02    6.5332506E-04
  2.5544999E-02    6.5729098E-04
  2.5580000E-02    6.5423426E-04
  2.5614999E-02    6.4427691E-04
  2.5650000E-02    6.2761019E-04
  2.5684999E-02    6.0449075E-04
  2.5720000E-02    5.7523558E-04
  2.5754999E-02    5.4022868E-04
  2.5790000E-02    4.9991533E-04
  2.5824999E-02    4.5478478E-04
  2.5860000E-02    4.0537099E-04
  2.5895000E-02    3.5225041E-04
  2.5930000E-02    2.9602673E-04
  2.5965000E-02    2.3733579E-04
  2.6000001E-02    1.7684310E-04
  2.6035000E-02    1.1521328E-04
  2.6070001E-02    5.3106720E-05
  2.6105000E-02   -8.8014795E-06
  2.6140001E-02   -6.9841502E-05
  2.6175000E-02   -1.2937197E-04
  2.6210001E-02   -1.8676788E-04
  2.6245000E-02   -2.4142889E-04
  2.6280001E-02   -2.9280336E-04
  2.6315000E-02   -3.4037590E-04
  2.6350001E-02   -3.8366226E-04
  2.6385000E-02   -4.2223764E-04
  2.6419999E-02   -4.5574174E-04
  2.6455000E-02   -4.8386771E-04
  2.6489999E-02   -5.0636858E-04
  2.6525000E-02   -5.2305503E-04
  2.6559999E-02   -5.3379656E-04
  2.6595000E-02   -5.3854741E-04
  2.6629999E-02   -5.3733622E-04
  2.6665000E-02   -5.3022779E-04
  2.6699999E-02   -5.1734591E-04
  2.6735000E-02   -4.9890584E-04
  2.6769999E-02   -4.7517908E-04
  2.6805000E-02   -4.4647462E-04
  2.6839999E-02   -4.1316359E-04
  2.6875000E-02   -3.7566348E-04
  2.6910000E-02   -3.3442269E-04
  2.6945001E-02   -2.8994767E-04
  2.6980000E-02   -2.4278251E-04