 -4.8000002E-03    1.0000000E-24
 -4.7650002E-03    1.0000002E-24
 -4.7300002E-03    1.0000001E-24
 -4.6950001E-03    1.0000001E-24
 -4.6600001E-03    1.0000003E-24
 -4.6250001E-03    1.0000001E-24
 -4.5900000E-03    9.9999992E-25
 -4.5550000E-03    1.0000003E-24
 -4.5200000E-03    1.0000001E-24
 -4.4849999E-03    9.9999953E-25
 -4.4499999E-03    1.0000002E-24
 -4.4149999E-03    1.0000007E-24
 -4.3799998E-03    1.0000003E-24
 -4.3449998E-03    1.0000000E-24
 -4.3100002E-03    1.0000001E-24
 -4.2750002E-03    1.0000000E-24
 -4.2400002E-03    1.0000000E-24
 -4.2050001E-03    1.0000001E-24
 -4.1700001E-03    9.9999982E-25
 -4.1350001E-03    1.0000003E-24
 -4.1000000E-03    1.0000009E-24
 -4.0650000E-03    1.0000002E-24
 -4.0300000E-03    9.9999943E-25
 -3.9949999E-03    9.9999963E-25
 -3.9599999E-03    1.0000001E-24
 -3.9249999E-03    1.0000000E-24
 -3.8900001E-03    9.9999992E-25
 -3.8550000E-03    1.0000000E-24
 -3.8200000E-03    1.0000005E-24
 -3.7849999E-03    1.0000008E-24
 -3.7499999E-03    9.9999992E-25
 -3.7150001E-03    9.9999923E-25
 -3.6800001E-03    9.9999992E-25
 -3.6450000E-03    1.0000007E-24
 -3.6100000E-03    1.0000004E-24
 -3.5750000E-03    9.9999982E-25
 -3.5399999E-03    1.0000002E-24
 -3.5049999E-03    1.0000004E-24
 -3.4700001E-03    9.9999982E-25
 -3.4350001E-03    9.9999953E-25
 -3.4000000E-03    9.9999992E-25
 -3.3650000E-03    1.0000003E-24
 -3.3300000E-03    1.0000008E-24
 -3.2949999E-03    1.0000006E-24
 -3.2599999E-03    9.9999953E-25
 -3.2250001E-03    9.9999943E-25
 -3.1900001E-03    1.0000007E-24
 -3.1550000E-03    1.0000004E-24
 -3.1200000E-03    9.9999884E-25
 -3.0850000E-03    1.0000000E-24
 -3.0499999E-03    1.0000015E-24
 -3.0149999E-03    1.0000001E-24
 -2.9800001E-03    9.9999933E-25
 -2.9450001E-03    1.0000007E-24
 -2.9100000E-03    1.0000008E-24
 -2.8750000E-03    9.9999933E-25
 -2.8400000E-03    9.9999972E-25
 -2.8049999E-03    1.0000002E-24
 -2.7699999E-03    9.9999992E-25
 -2.7350001E-03    1.0000001E-24
 -2.7000001E-03    1.0000006E-24
 -2.6650000E-03    9.9999992E-25
 -2.6300000E-03    9.9999903E-25
 -2.5950000E-03    9.9999992E-25
 -2.5599999E-03    1.0000009E-24
 -2.5249999E-03    1.0000006E-24
 -2.4900001E-03    9.9999992E-25
 -2.4550001E-03    1.0000000E-24
 -2.4200000E-03    1.0000006E-24
 -2.3850000E-03    1.0000009E-24
 -2.3500000E-03    1.0000002E-24
 -2.3149999E-03    9.9999943E-25
 -2.2799999E-03    9.9999943E-25
 -2.2450001E-03    9.9999992E-25
 -2.2100001E-03    9.9999982E-25
 -2.1750000E-03    9.9999982E-25
 -2.1400000E-03    1.0000000E-24
 -2.1050000E-03    1.0000001E-24
 -2.0699999E-03    1.0000003E-24
 -2.0349999E-03    1.0000006E-24
 -2.0000001E-03    1.0000006E-24
 -1.9650001E-03    9.9999992E-25
 -1.9300000E-03    9.9999963E-25
 -1.8950000E-03    1.0000000E-24
 -1.8600000E-03    1.0000005E-24
 -1.8250000E-03    1.0000001E-24
 -1.7900000E-03    9.9999982E-25
 -1.7550000E-03    1.0000009E-24
 -1.7199999E-03    1.0000014E-24
 -1.6850000E-03    9.9999972E-25
 -1.6500000E-03    9.9999854E-25
 -1.6150000E-03    9.9999963E-25
 -1.5800000E-03    1.0000006E-24
 -1.5450000E-03    9.9999913E-25
 -1.5100000E-03    9.9999943E-25
 -1.4750001E-03    1.0000014E-24
 -1.4400000E-03    1.0000009E-24
 -1.4050000E-03    9.9999933E-25
 -1.3700000E-03    9.9999992E-25
 -1.3350000E-03    1.0000004E-24
 -1.3000000E-03    9.9999972E-25
 -1.2650000E-03    1.0000001E-24
 -1.2300001E-03    1.0000008E-24
 -1.1950000E-03    1.0000001E-24
 -1.1600000E-03    9.9999992E-25
 -1.1250000E-03    1.0000009E-24
 -1.0900000E-03    1.0000005E-24
 -1.0550000E-03    9.9999982E-25
 -1.0200000E-03    1.0000007E-24
 -9.8500005E-04    1.0000009E-24
 -9.5000002E-04    9.9999903E-25
 -9.1499998E-04    9.9999884E-25
 -8.8000001E-04    1.0000003E-24
 -8.4499997E-04    1.0000006E-24
 -8.1000000E-04    9.9999992E-25
 -7.7500002E-04    1.0000004E-24
 -7.3999999E-04    1.0000007E-24
 -7.0500001E-04    9.9999972E-25
 -6.6999998E-04    9.9999992E-25
 -6.3500000E-04    1.0000005E-24
 -6.0000003E-04    9.9999972E-25
 -5.6499999E-04    9.9999972E-25
 -5.3000002E-04    1.0000005E-24
 -4.9499999E-04    9.9999963E-25
 -4.6000001E-04    9.9999903E-25
 -4.2500001E-04    1.0000001E-24
 -3.9000000E-04    1.0000009E-24
 -3.5500000E-04    1.0000001E-24
 -3.1999999E-04    1.0000000E-24
 -2.8499999E-04    1.0000007E-24
 -2.5000001E-04    1.0000000E-24
 -2.1499999E-04    9.9999953E-25
 -1.8000000E-04    1.0000005E-24
 -1.4500000E-04    1.0000008E-24
 -1.1000000E-04    9.9999913E-25
 -7.5000004E-05    9.9999963E-25
 -3.9999999E-05    1.0000020E-24
 -4.9999999E-06    1.0000005E-24
  2.9999999E-05    9.9999775E-25
  6.5000000E-05    9.9999923E-25
  9.9999997E-05    1.0000009E-24
  1.3499999E-04    9.9999943E-25
  1.7000000E-04    9.9999982E-25
  2.0500000E-04    1.0000016E-24
  2.3999999E-04    1.0000006E-24
  2.7500000E-04    9.9999903E-25
  3.1000000E-04    1.0000000E-24
  3.4500001E-04    1.0000011E-24
  3.8000001E-04    1.0000003E-24
  4.1499999E-04    1.0000002E-24
  4.4999999E-04    1.0000016E-24
  4.8500000E-04    1.0000010E-24
  5.2000000E-04    9.9999854E-25
  5.5499998E-04    9.9999884E-25
  5.9000001E-04    1.0000010E-24
  6.2499999E-04    1.0000009E-24
  6.6000002E-04    9.9999923E-25
  6.9500000E-04    1.0000003E-24
  7.3000003E-04    1.0000021E-24
  7.6500000E-04    1.0000000E-24
  7.9999998E-04    9.9999755E-25
  8.3500001E-04    9.9999864E-25
  8.6999999E-04    1.0000008E-24
  9.0500002E-04    1.0000005E-24
  9.4000000E-04    1.0000003E-24
  9.7499997E-04    1.0000010E-24
  1.0100000E-03    1.0000000E-24
  1.0450000E-03    9.9999943E-25
  1.0800000E-03    1.0000002E-24
  1.1150000E-03    9.9999972E-25
  1.1500000E-03    9.9999884E-25
  1.1849999E-03    1.0000001E-24
  1.2200000E-03    1.0000013E-24
  1.2550000E-03    1.0000008E-24
  1.2900000E-03    1.0000003E-24
  1.3250000E-03    1.0000000E-24
  1.3600000E-03    1.0000004E-24
  1.3950000E-03    1.0000002E-24
  1.4299999E-03    9.9999874E-25
  1.4650000E-03    9.9999884E-25
  1.5000000E-03    1.0000017E-24
  1.5350000E-03    1.0000013E-24
  1.5700000E-03    9.9999953E-25
  1.6050000E-03    1.0000011E-24
  1.6400000E-03    1.0000019E-24
  1.6749999E-03    9.9999864E-25
  1.7100000E-03    9.9999844E-25
  1.7450000E-03    1.0000009E-24
  1.7800000E-03    1.0000006E-24
  1.8150000E-03    9.9999933E-25
  1.8500000E-03    1.0000002E-24
  1.8850000E-03    1.0000007E-24
  1.9200000E-03    9.9999667E-25
  1.9550000E-03    1.0000014E-24
  1.9900000E-03    1.0000051E-24
  2.0250001E-03    9.9999469E-25
  2.0600001E-03    9.9999716E-25
  2.0949999E-03    1.0000183E-24
  2.1299999E-03    9.9997359E-25
  2.1650000E-03    9.9997675E-25
  2.2000000E-03    1.0000034E-24
  2.2350000E-03    9.9998572E-25
  2.2700001E-03    9.9997014E-25
  2.3050001E-03    9.9996215E-25
  2.3399999E-03    9.9996768E-25
  2.3749999E-03    9.9995545E-25
  2.4100000E-03    9.9984067E-25
  2.4450000E-03    9.9980221E-25
  2.4800000E-03    9.9989323E-25
  2.5150001E-03    1.0000297E-24
  2.5500001E-03    1.0002967E-24
  2.5849999E-03    1.0002959E-24
  2.6199999E-03    9.9996994E-25
  2.6550000E-03    9.9975192E-25
  2.6900000E-03    1.0004163E-24
  2.7250000E-03    1.0000688E-24
  2.7600001E-03    9.9851864E-25
  2.7950001E-03    1.0008487E-24
  2.8299999E-03    1.0041307E-24
  2.8649999E-03    9.9683422E-25
  2.9000000E-03    9.9539140E-25
  2.9350000E-03    1.0030448E-24
  2.9700000E-03    9.9510178E-25
  3.0050001E-03    9.8580062E-25
  3.0400001E-03    9.9636712E-25
  3.0749999E-03    1.0116389E-24
  3.1099999E-03    9.9071769E-25
  3.1450000E-03    9.8853827E-25
  3.1800000E-03    1.0219278E-24
  3.2150000E-03    1.0138961E-24
  3.2500001E-03    1.0051130E-24
  3.2850001E-03    9.7441943E-25
  3.3199999E-03    1.0223815E-24
  3.3549999E-03    9.0733184E-25
  3.3900000E-03    8.8826438E-25
  3.4250000E-03    1.0052818E-24
  3.4600000E-03    9.9100947E-25
  3.4950001E-03    8.5454077E-25
  3.5300001E-03    1.1997057E-24
  3.5649999E-03    1.4553929E-24
  3.5999999E-03    1.2964987E-24
  3.6350000E-03    7.6420328E-25
  3.6700000E-03    3.1705291E-25
  3.7050000E-03    1.9158057E-24
  3.7400001E-03    3.4780834E-24
  3.7750001E-03    5.8401160E-27
  3.8099999E-03    1.7923444E-24
  3.8449999E-03    9.6400913E-25
  3.8800000E-03    2.5731018E-25
  3.9149998E-03    8.9711806E-25
  3.9499998E-03    1.9350127E-24
  3.9849998E-03    2.2734297E-24
  4.0199999E-03    2.1480351E-24
  4.0549999E-03   -1.9696695E-24
  4.0899999E-03   -8.8055904E-24
  4.1250000E-03   -7.6152183E-24
  4.1600000E-03   -5.3480770E-24
  4.1950000E-03   -1.1407251E-24
  4.2300001E-03    1.1615115E-23
  4.2650001E-03    1.6975097E-23
  4.3000001E-03   -3.0306578E-23
  4.3350002E-03   -3.4928555E-25
  4.3700002E-03    3.5433584E-23
  4.4049998E-03   -2.5101403E-23
  4.4399998E-03   -1.5071956E-23
  4.4749998E-03    8.1325509E-24
  4.5099999E-03    7.7948753E-23
  4.5449999E-03    8.0546327E-23
  4.5799999E-03   -6.8965552E-23
  4.6150000E-03    4.8664832E-23
  4.6500000E-03    8.8863250E-23
  4.6850001E-03   -5.1240940E-23
  4.7200001E-03    1.2515777E-22
  4.7550001E-03    6.9378285E-23
  4.7900002E-03    5.1508307E-23
  4.8250002E-03    4.1300930E-22
  4.8600002E-03    1.8022132E-22
  4.8949998E-03    5.1143664E-23
  4.9299998E-03    3.0526239E-22
  4.9649999E-03   -1.8016835E-22
  4.9999999E-03    5.3466054E-22
  5.0349999E-03    1.2753478E-21
  5.0700000E-03   -8.3665118E-22
  5.1050000E-03   -2.2619199E-21
  5.1400000E-03    8.0842219E-23
  5.1750001E-03    1.8230681E-21
  5.2100001E-03    6.7824054E-22
  5.2450001E-03   -1.7479122E-21
  5.2800002E-03   -1.7009231E-21
  5.3150002E-03    5.8323754E-21
  5.3500002E-03    2.3785819E-21
  5.3849998E-03   -3.4400749E-21
  5.4199998E-03    1.1644725E-22
  5.4549999E-03    8.8069508E-21
  5.4899999E-03   -1.4282196E-21
  5.5249999E-03   -6.2882581E-21
  5.5600000E-03   -3.1923886E-22
  5.5950000E-03   -2.7492573E-21
  5.6300000E-03    2.7149967E-22
  5.6650001E-03    1.0422303E-21
  5.7000001E-03   -3.9537626E-21
  5.7350001E-03   -8.7700249E-21
  5.7700002E-03   -8.3067997E-21
  5.8050002E-03   -1.2481617E-20
  5.8400002E-03   -2.4890288E-20
  5.8749998E-03   -9.1987824E-21
  5.9099998E-03    2.3746367E-20
  5.9449999E-03    1.2301338E-22
  5.9799999E-03   -1.9744951E-20
  6.0149999E-03   -1.7330096E-20
  6.0500000E-03   -4.6489286E-20
  6.0850000E-03    2.9335224E-20
  6.1200000E-03    8.6061209E-20
  6.1550001E-03   -1.8729698E-21
  6.1900001E-03   -4.4689961E-20
  6.2250001E-03    3.8914562E-21
  6.2600002E-03    2.2220501E-20
  6.2950002E-03   -6.7635998E-21
  6.3299998E-03   -6.9326156E-20
  6.3649998E-03   -6.0825615E-20
  6.3999998E-03    1.9767863E-19
  6.4349999E-03    2.8846306E-19
  6.4699999E-03    3.9058406E-21
  6.5049999E-03   -3.7721145E-19
  6.5400000E-03    1.0550052E-19
  6.5750000E-03    5.7629280E-19
  6.6100000E-03    3.7231828E-19
  6.6450001E-03   -4.0535999E-19
  6.6800001E-03   -7.6902620E-19
  6.7150001E-03    1.7353378E-19
  6.7500002E-03    1.1904172E-18
  6.7850002E-03   -1.1758857E-19
  6.8199998E-03   -8.9468238E-19
  6.8549998E-03    4.0125909E-19
  6.8899998E-03    8.3292823E-19
  6.9249999E-03   -3.3199264E-19
  6.9599999E-03   -1.3692432E-19
  6.9949999E-03   -2.5292624E-19
  7.0300000E-03   -9.3642429E-19
  7.0650000E-03    9.7433480E-19
  7.1000000E-03    1.9519872E-18
  7.1350001E-03   -9.6901045E-19
  7.1700001E-03   -2.5565531E-18
  7.2050001E-03   -8.7691723E-19
  7.2400002E-03   -6.4925293E-19
  7.2750002E-03    3.1315433E-18
  7.3099998E-03    4.6984500E-18
  7.3449998E-03   -2.5661883E-18
  7.3799998E-03   -6.9170328E-18
  7.4149999E-03    1.0776792E-18
  7.4499999E-03    4.3082627E-18
  7.4850000E-03   -5.9600028E-19
  7.5200000E-03   -6.6055699E-18
  7.5550000E-03   -5.0576747E-18
  7.5900001E-03    6.6640698E-18
  7.6250001E-03    1.1076642E-17
  7.6600001E-03   -3.8551600E-18
  7.6950002E-03   -1.8004603E-17
  7.7300002E-03   -6.9302565E-18
  7.7650002E-03    2.1222536E-17
  7.7999998E-03    3.1543173E-17
  7.8349998E-03   -7.8376281E-18
  7.8699999E-03   -4.7195733E-17
  7.9049999E-03    1.7043567E-18
  7.9399999E-03    6.9553032E-17
  7.9750000E-03    1.2256561E-17
  8.0100000E-03   -8.8370028E-17
  8.0450000E-03   -3.6860631E-17
  8.0800001E-03    1.1926277E-16
  8.1150001E-03    9.7195019E-17
  8.1500001E-03   -1.0122151E-16
  8.1850002E-03   -1.7125954E-16
  8.2200002E-03    3.4736599E-17
  8.2550002E-03    2.2397097E-16
  8.2900003E-03    7.1046258E-17
  8.3250003E-03   -2.6318785E-16
  8.3600003E-03   -2.1339924E-16
  8.3950004E-03    2.4050754E-16
  8.4300004E-03    3.7647772E-16
  8.4650004E-03   -1.3277638E-16
  8.5000005E-03   -5.5343179E-16
  8.5349996E-03   -6.2676620E-17
  8.5699996E-03    7.0552731E-16
  8.6049996E-03    4.1939658E-16
  8.6399997E-03   -7.2102060E-16
  8.6749997E-03   -8.1860387E-16
  8.7099997E-03    5.3589091E-16
  8.7449998E-03    1.1745566E-15
  8.7799998E-03   -1.9276093E-16
  8.8149998E-03   -1.5530293E-15
  8.8499999E-03   -4.5824975E-16
  8.8849999E-03    1.6564715E-15
  8.9199999E-03    1.2443387E-15
  8.9550000E-03   -1.4602230E-15
  8.9900000E-03   -2.0912837E-15
  9.0250000E-03    8.9913479E-16
  9.0600001E-03    2.8561724E-15
  9.0950001E-03    1.2098202E-16
  9.1300001E-03   -3.3880666E-15
  9.1650002E-03   -1.5750441E-15
  9.2000002E-03    3.3254954E-15
  9.2350002E-03    3.2077862E-15
  9.2700003E-03   -2.3636372E-15
  9.3050003E-03   -4.6637634E-15
  9.3400003E-03    8.2330840E-16
  9.3750004E-03    5.8209015E-15
  9.4100004E-03    1.4588571E-15
  9.4450004E-03   -6.1053889E-15
  9.4799995E-03   -4.1138061E-15
  9.5149996E-03    5.3909425E-15
  9.5499996E-03    6.8103943E-15
  9.5849996E-03   -3.5396507E-15
  9.6199997E-03   -9.0298329E-15
  9.6549997E-03    5.4338678E-16
  9.6899997E-03    9.9932295E-15
  9.7249998E-03    3.0630509E-15
  9.7599998E-03   -9.6389249E-15
  9.7949998E-03   -6.6482828E-15
  9.8299999E-03    7.9687623E-15
  9.8649999E-03    9.8037973E-15
  9.8999999E-03   -4.9343371E-15
  9.9350000E-03   -1.1450036E-14
  9.9700000E-03    1.4506866E-15
  1.0005000E-02    1.1559725E-14
  1.0040000E-02    1.6568152E-15
  1.0075000E-02   -1.0542397E-14
  1.0110000E-02   -3.8034464E-15
  1.0145000E-02    8.9838830E-15
  1.0180000E-02    4.4603112E-15
  1.0215000E-02   -8.1697124E-15
  1.0250000E-02   -4.0604227E-15
  1.0285000E-02    9.0480297E-15
  1.0320000E-02    3.5725652E-15
  1.0355000E-02   -1.2497455E-14
  1.0390000E-02   -5.1442611E-15
  1.0425000E-02    1.8130808E-14
  1.0460000E-02    1.1262413E-14
  1.0495000E-02   -2.3773071E-14
  1.0530000E-02   -2.3618392E-14
  1.0565000E-02    2.6157914E-14
  1.0600000E-02    4.3046756E-14
  1.0635000E-02   -1.9838745E-14
  1.0670000E-02   -6.6997311E-14
  1.0705000E-02   -7.1928297E-17
  1.0740000E-02    9.0196635E-14
  1.0775000E-02    3.7680765E-14
  1.0810000E-02   -1.0331680E-13
  1.0845000E-02   -9.3142833E-14
  1.0880000E-02    9.4708062E-14
  1.0915000E-02    1.6024596E-13
  1.0950000E-02   -5.3576043E-14
  1.0985000E-02   -2.2661636E-13
  1.1020000E-02   -2.7395427E-14
  1.1055000E-02    2.7334144E-13
  1.1090000E-02    1.4788847E-13
  1.1125000E-02   -2.7722952E-13
  1.1160000E-02   -2.9599112E-13
  1.1195000E-02    2.1657228E-13
  1.1230000E-02    4.4665836E-13
  1.1265000E-02   -7.7528445E-14
  1.1300000E-02   -5.6320145E-13
  1.1335000E-02   -1.3806668E-13
  1.1370000E-02    6.0328164E-13
  1.1405000E-02    4.0735389E-13
  1.1440000E-02   -5.2826390E-13
  1.1475000E-02   -6.8474301E-13
  1.1510000E-02    3.1476915E-13
  1.1545000E-02    9.0538758E-13
  1.1580000E-02    3.1998509E-14
  1.1615000E-02   -9.9708241E-13
  1.1650000E-02   -4.7088581E-13
  1.1685000E-02    8.9714531E-13
  1.1720000E-02    9.2376627E-13
  1.1755000E-02   -5.7244509E-13
  1.1790000E-02   -1.2853669E-12
  1.1825000E-02    3.6995753E-14
  1.1860000E-02    1.4425365E-12
  1.1895000E-02    6.3630693E-13
  1.1930000E-02   -1.3039371E-12
  1.1965000E-02   -1.3195781E-12
  1.2000000E-02    8.3012471E-13
  1.2035000E-02    1.8476661E-12
  1.2070000E-02   -6.1397556E-14
  1.2105000E-02   -2.0557362E-12
  1.2140000E-02   -8.7344812E-13
  1.2175000E-02    1.8236170E-12
  1.2210000E-02    1.7667679E-12
  1.2245000E-02   -1.1242418E-12
  1.2280000E-02   -2.3727023E-12
  1.2315000E-02    5.3137416E-14
  1.2350000E-02    2.4628576E-12
  1.2385000E-02    1.1615683E-12
  1.2420000E-02   -1.9020226E-12
  1.2455000E-02   -2.1938274E-12
  1.2490000E-02    7.0919545E-13
  1.2525000E-02    2.6874206E-12
  1.2560000E-02    9.0537755E-13
  1.2595000E-02   -2.3541575E-12
  1.2630000E-02   -2.5537727E-12
  1.2665000E-02    1.0749936E-12
  1.2700000E-02    3.7373455E-12
  1.2735000E-02    1.0203418E-12
  1.2770000E-02   -3.9658407E-12
  1.2805000E-02   -3.5298088E-12
  1.2840000E-02    2.9005238E-12
  1.2875000E-02    5.8282038E-12
  1.2910000E-02   -4.8886193E-13
  1.2945000E-02   -7.1944273E-12
  1.2980000E-02   -2.9570719E-12
  1.3015000E-02    6.9895929E-12
  1.3050000E-02    6.7659259E-12
  1.3085000E-02   -4.8502426E-12
  1.3120000E-02   -1.0015289E-11
  1.3155000E-02    8.4205483E-13
  1.3190000E-02    1.1730789E-11
  1.3225000E-02    4.4761235E-12
  1.3260000E-02   -1.1133168E-11
  1.3295000E-02   -1.0115242E-11
  1.3330000E-02    7.8637661E-12
  1.3365000E-02    1.4833827E-11
  1.3400000E-02   -2.1334375E-12
  1.3435000E-02   -1.7398477E-11
  1.3470000E-02   -5.2422381E-12
  1.3505000E-02    1.6875418E-11
  1.3540000E-02    1.2953589E-11
  1.3575000E-02   -1.2887762E-11
  1.3610000E-02   -1.9439844E-11
  1.3645000E-02    5.7746590E-12
  1.3680000E-02    2.3228735E-11
  1.3715000E-02    3.4339395E-12
  1.3750000E-02   -2.3265322E-11
  1.3785000E-02   -1.3227049E-11
  1.3820000E-02    1.9133056E-11
  1.3855000E-02    2.1857748E-11
  1.3890000E-02   -1.1199004E-11
  1.3925000E-02   -2.7680002E-11
  1.3960000E-02    5.8326195E-13
  1.3995000E-02    2.9537400E-11
  1.4030000E-02    1.1010312E-11
  1.4065000E-02   -2.7067688E-11
  1.4100000E-02   -2.1767197E-11
  1.4135000E-02    2.0795421E-11
  1.4170000E-02    3.0178041E-11
  1.4205000E-02   -1.1857459E-11
  1.4240000E-02   -3.5265450E-11
  1.4275000E-02    1.7422179E-12
  1.4310000E-02    3.6825810E-11
  1.4345000E-02    8.0853943E-12
  1.4380000E-02   -3.5323629E-11
  1.4415000E-02   -1.6583434E-11
  1.4450000E-02    3.1709232E-11
  1.4485000E-02    2.3191787E-11
  1.4520000E-02   -2.6912101E-11
  1.4555000E-02   -2.7842771E-11
  1.4590000E-02    2.1410361E-11
  1.4625000E-02    3.0727320E-11
  1.4660000E-02   -1.4898454E-11
  1.4695000E-02   -3.1488992E-11
  1.4730000E-02    7.6415515E-12
  1.4765000E-02    3.0438086E-11
  1.4800000E-02    5.2742072E-13
  1.4835000E-02   -2.6774478E-11
  1.4870000E-02   -9.1774444E-12
  1.4905000E-02    1.9061058E-11
  1.4940000E-02    1.7374891E-11
  1.4975000E-02   -7.5414362E-12
  1.5010000E-02   -2.3340548E-11
  1.5045000E-02   -1.0150844E-11
  1.5080000E-02    2.2515564E-11
  1.5115000E-02    2.7882153E-11
  1.5150000E-02   -1.4963730E-11
  1.5185000E-02   -4.3124955E-11
  1.5220000E-02    3.4821659E-12
  1.5255000E-02    5.5008605E-11
  1.5290000E-02    1.1064026E-11
  1.5325000E-02   -6.6260789E-11
  1.5360000E-02   -3.1065931E-11
  1.5395000E-02    7.2835828E-11
  1.5430000E-02    4.8052302E-11
  1.5465000E-02   -7.4762259E-11
  1.5500000E-02   -6.0542550E-11
  1.5535000E-02    7.5771618E-11
  1.5570000E-02    7.2450088E-11
  1.5605000E-02   -7.1875693E-11
  1.5640000E-02   -8.2281910E-11
  1.5675001E-02    5.8545217E-11
  1.5710000E-02    8.4267274E-11
  1.5745001E-02   -6.0160182E-11
  1.5780000E-02   -9.3158981E-11
  1.5814999E-02    5.6954809E-11
  1.5850000E-02    1.1080982E-10
  1.5884999E-02   -4.2926860E-11
  1.5920000E-02   -1.0661613E-10
  1.5954999E-02    1.3082002E-11
  1.5990000E-02    7.9597509E-11
  1.6024999E-02    7.9501618E-13
  1.6060000E-02   -4.0870089E-11
  1.6094999E-02    9.3593362E-12
  1.6130000E-02    2.6386541E-11
  1.6164999E-02   -3.8175931E-11
  1.6200000E-02   -2.5885603E-11
  1.6235000E-02    3.2211459E-11
  1.6270000E-02    1.0576020E-11
  1.6305000E-02   -2.6804307E-11
  1.6340001E-02    6.8441967E-12
  1.6375000E-02    6.7093664E-11
  1.6410001E-02   -8.0745485E-13
  1.6445000E-02   -1.1848995E-10
  1.6480001E-02    7.9698401E-11
  1.6515000E-02    2.1979812E-10
  1.6550001E-02   -6.3897138E-11
  1.6585000E-02   -2.5607858E-10
  1.6620001E-02   -4.0814184E-12
  1.6655000E-02    1.2406771E-10
  1.6690001E-02   -1.3805503E-10
  1.6725000E-02   -1.6312941E-10
  1.6759999E-02    1.4862667E-10
  1.6795000E-02    2.6689595E-10
  1.6829999E-02   -1.4062604E-11
  1.6865000E-02   -2.7008046E-10
  1.6899999E-02   -7.6726923E-11
  1.6935000E-02    2.8174074E-10
  1.6969999E-02    1.4409696E-10
  1.7005000E-02   -3.1313122E-10
  1.7039999E-02   -2.1042200E-10
  1.7075000E-02    3.5643452E-10
  1.7109999E-02    3.1783845E-10
  1.7145000E-02   -3.1391523E-10
  1.7180000E-02   -3.9123346E-10
  1.7215000E-02    9.3927963E-11
  1.7250000E-02    2.1136284E-10
  1.7285001E-02   -5.9103826E-11
  1.7320000E-02   -2.5143077E-10
  1.7355001E-02    7.2509908E-11
  1.7390000E-02    2.2455418E-10
  1.7425001E-02   -8.2806074E-11
  1.7460000E-02   -2.6294595E-11
  1.7495001E-02    1.3811863E-10
  1.7530000E-02   -2.6620652E-11
  1.7565001E-02   -1.0886169E-10
  1.7600000E-02   -2.3211405E-10
  1.7635001E-02   -1.0170315E-10
  1.7670000E-02    8.6629376E-12
  1.7704999E-02   -4.4441806E-10
  1.7740000E-02   -1.5410374E-10
  1.7774999E-02    6.0805377E-10
  1.7810000E-02    3.3218078E-10
  1.7844999E-02   -2.9423350E-10
  1.7880000E-02    4.9346677E-10
  1.7914999E-02    1.1538360E-09
  1.7950000E-02   -6.5102174E-10
  1.7984999E-02   -1.5490267E-09
  1.8020000E-02    3.9829473E-10
  1.8054999E-02    9.4674568E-10
  1.8090000E-02   -4.4451620E-10
  1.8124999E-02   -5.8859118E-10
  1.8160000E-02    2.2996635E-10
  1.8195000E-02   -4.0572129E-12
  1.8230001E-02   -2.5225796E-10
  1.8265000E-02   -1.9719589E-11
  1.8300001E-02    5.5282372E-11
  1.8335000E-02    5.2765953E-10
  1.8370001E-02    3.6186140E-10
  1.8405000E-02   -4.4779858E-10
  1.8440001E-02   -1.6787990E-10
  1.8475000E-02    3.6163258E-10
  1.8510001E-02   -2.4294303E-10
  1.8545000E-02   -1.0582391E-09
  1.8580001E-02   -2.2430997E-10
  1.8615000E-02    1.3217978E-09
  1.8650001E-02    7.0210193E-10
  1.8685000E-02   -1.1389769E-09
  1.8719999E-02   -6.1061234E-10
  1.8755000E-02    7.9086093E-10
  1.8789999E-02    5.6851157E-10
  1.8825000E-02    2.2116306E-10
  1.8859999E-02   -1.9885778E-10
  1.8895000E-02   -1.2747204E-09
  1.8929999E-02   -8.9138569E-10
  1.8965000E-02    9.0599550E-10
  1.8999999E-02    6.8592032E-10
  1.9035000E-02   -3.1355732E-10
  1.9069999E-02    8.1724677E-10
  1.9105000E-02    1.0438403E-09
  1.9140000E-02   -8.6527080E-10
  1.9175000E-02   -7.6609480E-10
  1.9210000E-02    7.3596157E-10
  1.9245001E-02    1.5278823E-11
  1.9280000E-02   -9.0230372E-11
  1.9315001E-02    1.3418289E-09
  1.9350000E-02   -1.1689817E-10
  1.9385001E-02   -2.7484708E-09
  1.9420000E-02   -1.0595281E-09
  1.9455001E-02    1.8513823E-09
  1.9490000E-02    1.5441313E-09
  1.9525001E-02   -5.1334836E-10
  1.9560000E-02   -1.0569228E-09
  1.9595001E-02    7.5486462E-10
  1.9630000E-02    1.7209323E-09
  1.9664999E-02   -1.0312764E-09
  1.9700000E-02   -2.4344746E-09
  1.9734999E-02    1.8042372E-09
  1.9770000E-02    3.3381355E-09
  1.9804999E-02   -1.4150976E-09
  1.9840000E-02   -1.7359426E-09
  1.9874999E-02    2.1260653E-09
  1.9910000E-02    5.2370103E-10
  1.9944999E-02   -2.9088039E-09
  1.9980000E-02   -3.1526085E-10
  2.0014999E-02    2.5238256E-09
  2.0050000E-02    4.6178724E-11
  2.0085000E-02   -1.6239358E-09
  2.0120000E-02    9.2395097E-10
  2.0155000E-02    1.9906305E-09
  2.0190001E-02   -8.3259361E-10
  2.0225000E-02   -1.7306945E-09
  2.0260001E-02   -4.7980536E-10
  2.0295000E-02   -8.3384682E-10
  2.0330001E-02   -3.5887499E-10
  2.0365000E-02    2.1809745E-09
  2.0400001E-02    1.1259660E-09
  2.0435000E-02   -1.4343374E-09
  2.0470001E-02   -3.9966883E-10
  2.0505000E-02    6.4682970E-10
  2.0540001E-02   -1.4608235E-09
  2.0575000E-02   -2.4218145E-09
  2.0609999E-02   -7.2433354E-10
  2.0645000E-02    7.2579542E-10
  2.0679999E-02    1.9834172E-09
  2.0715000E-02    8.8484331E-10
  2.0749999E-02   -1.7481294E-09
  2.0785000E-02   -1.3492958E-09
  2.0819999E-02    3.5694567E-10
  2.0855000E-02    7.6227191E-11
  2.0889999E-02    1.2935554E-10
  2.0925000E-02    1.7327530E-10
  2.0959999E-02   -6.9241174E-10
  2.0995000E-02   -5.1694365E-10
  2.1029999E-02   -3.9237602E-12
  2.1065000E-02   -1.2418592E-09
  2.1100000E-02   -5.5121147E-10
  2.1135001E-02    1.7134377E-09
  2.1170000E-02    2.0420101E-09
  2.1205001E-02    1.1515999E-09
  2.1240000E-02    8.5775935E-11
  2.1275001E-02   -1.7233507E-09
  2.1310000E-02   -2.1699429E-09
  2.1345001E-02    9.6083674E-10
  2.1380000E-02    2.6147586E-09
  2.1415001E-02   -7.8781504E-10
  2.1450000E-02   -3.4548024E-09
  2.1485001E-02   -5.7817406E-10
  2.1520000E-02    1.8338592E-09
  2.1555001E-02   -5.4561550E-10
  2.1590000E-02   -1.2476208E-09
  2.1624999E-02    2.2169198E-09
  2.1660000E-02    2.0960127E-09
  2.1694999E-02   -2.3524360E-09
  2.1730000E-02   -2.8470415E-09
  2.1764999E-02    1.4155481E-09
  2.1800000E-02    2.1691939E-09
  2.1834999E-02   -1.5400233E-09
  2.1870000E-02   -1.3705580E-09
  2.1904999E-02    2.2665716E-09
  2.1940000E-02    9.9162334E-10
  2.1974999E-02   -2.5989753E-09
  2.2010000E-02   -7.0746226E-10
  2.2045000E-02    2.7623070E-09
  2.2080000E-02    1.6237474E-09
  2.2115000E-02   -1.0663460E-09
  2.2150001E-02   -1.3827418E-09
  2.2185000E-02    3.0298566E-10
  2.2220001E-02    1.7573833E-09
  2.2255000E-02    9.0433061E-10
  2.2290001E-02   -6.0497463E-10
  2.2325000E-02   -1.1805354E-09
  2.2360001E-02   -1.0944865E-09
  2.2395000E-02    1.4185474E-09
  2.2430001E-02    3.7473509E-09
  2.2465000E-02    3.7817260E-10
  2.2500001E-02   -2.1973603E-09
  2.2535000E-02    1.5814440E-09
  2.2569999E-02    1.5318538E-09
  2.2605000E-02   -3.6724592E-09
  2.2639999E-02   -2.0409088E-09
  2.2675000E-02    3.0774550E-09
  2.2709999E-02    1.8773016E-09
  2.2745000E-02   -1.1799820E-09
  2.2779999E-02   -1.0182726E-09
  2.2815000E-02    3.7905498E-10
  2.2849999E-02    1.1321175E-09
  2.2885000E-02    1.4718680E-10
  2.2919999E-02    2.9588884E-10
  2.2955000E-02    3.3314802E-09
  2.2990000E-02    2.0325956E-09
  2.3025000E-02   -3.5100229E-09
  2.3060000E-02   -3.1171175E-09
  2.3095001E-02    6.8200712E-10
  2.3130000E-02    3.7255110E-10
  2.3165001E-02    6.6728378E-10
  2.3200000E-02    2.7926448E-09
  2.3235001E-02    2.4763944E-10
  2.3270000E-02   -3.5853120E-09
  2.3305001E-02   -1.9821162E-09
  2.3340000E-02    1.8250831E-09
  2.3375001E-02    2.3061739E-09
  2.3410000E-02    2.1700355E-10
  2.3445001E-02    2.9584440E-10
  2.3480000E-02    2.3220810E-09
  2.3514999E-02    1.7690276E-10
  2.3550000E-02   -3.5735730E-09
  2.3584999E-02   -8.4449336E-10
  2.3620000E-02    2.9933289E-09
  2.3654999E-02    2.7612940E-10
  2.3690000E-02   -1.7723366E-09
  2.3724999E-02    1.9243895E-09
  2.3760000E-02    2.8311469E-09
  2.3794999E-02   -2.4064457E-09
  2.3830000E-02   -5.1568581E-09
  2.3864999E-02   -1.2269551E-09
  2.3900000E-02    2.9716813E-09
  2.3934999E-02    2.3478028E-09
  2.3970000E-02    3.8502437E-10
  2.4005000E-02    2.7865336E-12
  2.4040001E-02   -1.0003903E-09
  2.4075000E-02   -1.7064693E-09
  2.4110001E-02   -4.0912704E-10
  2.4145000E-02   -3.9676959E-10
  2.4180001E-02   -7.2673595E-10
  2.4215000E-02    1.6590720E-09
  2.4250001E-02    1.8890587E-09
  2.4285000E-02   -1.3665635E-09
  2.4320001E-02   -1.7328188E-09
  2.4355000E-02    2.6748678E-10
  2.4390001E-02    3.9229450E-10
  2.4425000E-02   -3.8230522E-10
  2.4460001E-02   -1.0905095E-09
  2.4495000E-02   -3.1280009E-10
  2.4529999E-02    2.5139064E-09
  2.4565000E-02    1.7722073E-09
  2.4599999E-02   -2.6005866E-09
  2.4635000E-02   -2.6707714E-09
  2.4669999E-02    8.9381488E-12
  2.4705000E-02   -1.5727995E-10
  2.4739999E-02   -1.7103260E-10
  2.4775000E-02    5.9886923E-10
  2.4809999E-02   -4.1646864E-10
  2.4845000E-02   -4.1663345E-10
  2.4879999E-02    1.8067678E-10
  2.4915000E-02   -1.2316109E-09
  2.4950000E-02   -3.7804188E-10
  2.4985000E-02    2.9360723E-09
  2.5020000E-02    1.9316575E-09
  2.5055001E-02   -2.1341504E-09
  2.5090000E-02   -2.9590173E-09
  2.5125001E-02   -7.7087314E-10
  2.5160000E-02    1.1566529E-09
  2.5195001E-02    1.1090556E-09
  2.5230000E-02   -4.3845949E-10
  2.5265001E-02   -1.0511574E-09
  2.5300000E-02   -7.2474471E-10
  2.5335001E-02   -6.5758277E-10
  2.5370000E-02    9.4972162E-11
  2.5405001E-02    9.3594910E-10
  2.5440000E-02    7.4203049E-10
  2.5474999E-02    9.6292163E-10
  2.5510000E-02    9.1891539E-10
  2.5544999E-02   -5.9276595E-10
  2.5580000E-02   -4.5918896E-10
  2.5614999E-02    1.6556994E-09
  2.5650000E-02    1.1520275E-09
  2.5684999E-02   -1.1995135E-09
  2.5720000E-02   -8.2080487E-10
  2.5754999E-02    7.7920159E-10
  2.5790000E-02   -1.6891225E-10
  2.5824999E-02   -1.7885771E-09
  2.5860000E-02   -8.0592927E-10
  2.5895000E-02    7.9532964E-10
  2.5930000E-02   -3.1829334E-10
  2.5965000E-02   -1.6584798E-09
  2.6000001E-02   -1.8156343E-10
  2.6035000E-02    9.6413311E-10
  2.6070001E-02    7.5518797E-10
  2.6105000E-02    2.0575484E-09
  2.6140001E-02    1.4877538E-09
  2.6175000E-02   -2.6151394E-09
  2.6210001E-02   -1.6036653E-09
  2.6245000E-02    3.5989853E-09
  2.6280001E-02    1.3211575E-09
  2.6315000E-02   -3.1750300E-09
  2.6350001E-02    4.2768111E-10
  2.6385000E-02    2.1555828E-09
  2.6419999E-02   -2.2626847E-09
  2.6455000E-02   -4.4558313E-10
  2.6489999E-02    2.9435161E-09
  2.6525000E-02   -2.1463511E-09
  2.6559999E-02   -2.9084573E-09
  2.6595000E-02    3.3563847E-09
  2.6629999E-02    5.8349231E-10
  2.6665000E-02   -3.8618180E-09
  2.6699999E-02    2.7543399E-09
  2.6735000E-02    4.3680477E-09
  2.6769999E-02   -3.6364880E-09
  2.6805000E-02   -2.1024196E-09
  2.6839999E-02    3.7986068E-09
  2.6875000E-02   -1.1036714E-09
  2.6910000E-02   -3.5639438E-09
  2.6945001E-02    2.9256428E-09
  2.6980000E-02    2.2073370E-09