 -4.8000002E-03    1.0000000E-24
 -4.7650002E-03    1.0000002E-24
 -4.7300002E-03    1.0000001E-24
 -4.6950001E-03    1.0000000E-24
 -4.6600001E-03    1.0000003E-24
 -4.6250001E-03    1.0000002E-24
 -4.5900000E-03    1.0000001E-24
 -4.5550000E-03    1.0000002E-24
 -4.5200000E-03    9.9999982E-25
 -4.4849999E-03    1.0000001E-24
 -4.4499999E-03    1.0000002E-24
 -4.4149999E-03    1.0000000E-24
 -4.3799998E-03    9.9999982E-25
 -4.3449998E-03    1.0000003E-24
 -4.3100002E-03    1.0000006E-24
 -4.2750002E-03    1.0000000E-24
 -4.2400002E-03    9.9999992E-25
 -4.2050001E-03    1.0000003E-24
 -4.1700001E-03    1.0000002E-24
 -4.1350001E-03    9.9999972E-25
 -4.1000000E-03    9.9999982E-25
 -4.0650000E-03    1.0000002E-24
 -4.0300000E-03    1.0000001E-24
 -3.9949999E-03    9.9999972E-25
 -3.9599999E-03    1.0000000E-24
 -3.9249999E-03    1.0000003E-24
 -3.8900001E-03    9.9999992E-25
 -3.8550000E-03    1.0000000E-24
 -3.8200000E-03    1.0000004E-24
 -3.7849999E-03    1.0000003E-24
 -3.7499999E-03    9.9999972E-25
 -3.7150001E-03    1.0000003E-24
 -3.6800001E-03    1.0000007E-24
 -3.6450000E-03    9.9999982E-25
 -3.6100000E-03    9.9999963E-25
 -3.5750000E-03    1.0000002E-24
 -3.5399999E-03    1.0000000E-24
 -3.5049999E-03    9.9999972E-25
 -3.4700001E-03    1.0000007E-24
 -3.4350001E-03    1.0000005E-24
 -3.4000000E-03    9.9999953E-25
 -3.3650000E-03    9.9999982E-25
 -3.3300000E-03    1.0000004E-24
 -3.2949999E-03    9.9999982E-25
 -3.2599999E-03    9.9999992E-25
 -3.2250001E-03    1.0000005E-24
 -3.1900001E-03    1.0000007E-24
 -3.1550000E-03    9.9999963E-25
 -3.1200000E-03    9.9999953E-25
 -3.0850000E-03    1.0000006E-24
 -3.0499999E-03    1.0000009E-24
 -3.0149999E-03    9.9999943E-25
 -2.9800001E-03    9.9999933E-25
 -2.9450001E-03    1.0000012E-24
 -2.9100000E-03    1.0000006E-24
 -2.8750000E-03    9.9999893E-25
 -2.8400000E-03    1.0000002E-24
 -2.8049999E-03    1.0000013E-24
 -2.7699999E-03    9.9999972E-25
 -2.7350001E-03    9.9999943E-25
 -2.7000001E-03    1.0000008E-24
 -2.6650000E-03    1.0000011E-24
 -2.6300000E-03    9.9999972E-25
 -2.5950000E-03    9.9999982E-25
 -2.5599999E-03    1.0000002E-24
 -2.5249999E-03    9.9999943E-25
 -2.4900001E-03    9.9999943E-25
 -2.4550001E-03    1.0000004E-24
 -2.4200000E-03    1.0000011E-24
 -2.3850000E-03    1.0000005E-24
 -2.3500000E-03    9.9999953E-25
 -2.3149999E-03    9.9999953E-25
 -2.2799999E-03    9.9999963E-25
 -2.2450001E-03    9.9999963E-25
 -2.2100001E-03    1.0000003E-24
 -2.1750000E-03    1.0000007E-24
 -2.1400000E-03    1.0000003E-24
 -2.1050000E-03    1.0000004E-24
 -2.0699999E-03    1.0000008E-24
 -2.0349999E-03    1.0000003E-24
 -2.0000001E-03    9.9999972E-25
 -1.9650001E-03    9.9999982E-25
 -1.9300000E-03    1.0000000E-24
 -1.8950000E-03    9.9999963E-25
 -1.8600000E-03    9.9999963E-25
 -1.8250000E-03    1.0000007E-24
 -1.7900000E-03    1.0000006E-24
 -1.7550000E-03    9.9999953E-25
 -1.7199999E-03    9.9999982E-25
 -1.6850000E-03    1.0000002E-24
 -1.6500000E-03    1.0000001E-24
 -1.6150000E-03    1.0000001E-24
 -1.5800000E-03    9.9999963E-25
 -1.5450000E-03    9.9999982E-25
 -1.5100000E-03    1.0000005E-24
 -1.4750001E-03    1.0000004E-24
 -1.4400000E-03    1.0000002E-24
 -1.4050000E-03    1.0000003E-24
 -1.3700000E-03    1.0000006E-24
 -1.3350000E-03    9.9999992E-25
 -1.3000000E-03    9.9999943E-25
 -1.2650000E-03    9.9999963E-25
 -1.2300001E-03    1.0000001E-24
 -1.1950000E-03    1.0000006E-24
 -1.1600000E-03    1.0000002E-24
 -1.1250000E-03    9.9999963E-25
 -1.0900000E-03    1.0000001E-24
 -1.0550000E-03    1.0000006E-24
 -1.0200000E-03    9.9999933E-25
 -9.8500005E-04    9.9999913E-25
 -9.5000002E-04    1.0000006E-24
 -9.1499998E-04    1.0000015E-24
 -8.8000001E-04    1.0000000E-24
 -8.4499997E-04    9.9999844E-25
 -8.1000000E-04    1.0000001E-24
 -7.7500002E-04    1.0000011E-24
 -7.3999999E-04    9.9999923E-25
 -7.0500001E-04    9.9999884E-25
 -6.6999998E-04    1.0000008E-24
 -6.3500000E-04    1.0000010E-24
 -6.0000003E-04    1.0000000E-24
 -5.6499999E-04    1.0000004E-24
 -5.3000002E-04    1.0000002E-24
 -4.9499999E-04    1.0000000E-24
 -4.6000001E-04    1.0000009E-24
 -4.2500001E-04    1.0000001E-24
 -3.9000000E-04    9.9999953E-25
 -3.5500000E-04    1.0000006E-24
 -3.1999999E-04    1.0000004E-24
 -2.8499999E-04    9.9999903E-25
 -2.5000001E-04    1.0000002E-24
 -2.1499999E-04    1.0000006E-24
 -1.8000000E-04    9.9999844E-25
 -1.4500000E-04    9.9999903E-25
 -1.1000000E-04    1.0000013E-24
 -7.5000004E-05    1.0000002E-24
 -3.9999999E-05    9.9999982E-25
 -4.9999999E-06    1.0000019E-24
  2.9999999E-05    1.0000013E-24
  6.5000000E-05    9.9999874E-25
  9.9999997E-05    9.9999903E-25
  1.3499999E-04    1.0000009E-24
  1.7000000E-04    1.0000007E-24
  2.0500000E-04    9.9999903E-25
  2.3999999E-04    9.9999903E-25
  2.7500000E-04    1.0000009E-24
  3.1000000E-04    1.0000006E-24
  3.4500001E-04    9.9999884E-25
  3.8000001E-04    1.0000002E-24
  4.1499999E-04    1.0000013E-24
  4.4999999E-04    9.9999972E-25
  4.8500000E-04    9.9999884E-25
  5.2000000E-04    1.0000003E-24
  5.5499998E-04    1.0000019E-24
  5.9000001E-04    1.0000010E-24
  6.2499999E-04    9.9999548E-25
  6.6000002E-04    9.9999746E-25
  6.9500000E-04    1.0000118E-24
  7.3000003E-04    1.0000020E-24
  7.6500000E-04    9.9997330E-25
  7.9999998E-04    1.0000050E-24
  8.3500001E-04    1.0000540E-24
  8.6999999E-04    9.9997458E-25
  9.0500002E-04    9.9990407E-25
  9.4000000E-04    1.0000715E-24
  9.7499997E-04    1.0001574E-24
  1.0100000E-03    9.9984018E-25
  1.0450000E-03    9.9976030E-25
  1.0800000E-03    1.0003127E-24
  1.1150000E-03    1.0003458E-24
  1.1500000E-03    9.9945413E-25
  1.1849999E-03    9.9952138E-25
  1.2200000E-03    1.0008595E-24
  1.2550000E-03    1.0006690E-24
  1.2900000E-03    9.9879927E-25
  1.3250000E-03    9.9897351E-25
  1.3600000E-03    1.0014342E-24
  1.3950000E-03    1.0018800E-24
  1.4299999E-03    9.9868262E-25
  1.4650000E-03    9.9596924E-25
  1.5000000E-03    1.0005492E-24
  1.5350000E-03    1.0091807E-24
  1.5700000E-03    1.0009995E-24
  1.6050000E-03    9.7939211E-25
  1.6400000E-03    9.9722678E-25
  1.6749999E-03    1.0441401E-24
  1.7100000E-03    1.0026320E-24
  1.7450000E-03    9.1043837E-25
  1.7800000E-03    1.0044539E-24
  1.8150000E-03    1.1728995E-24
  1.8500000E-03    9.7223754E-25
  1.8850000E-03    6.7946823E-25
  1.9200000E-03    1.0814930E-24
  1.9550000E-03    1.5772751E-24
  1.9900000E-03    8.1697413E-25
  2.0250001E-03   -2.2193463E-26
  2.0600001E-03    1.3452456E-24
  2.0949999E-03    2.7981228E-24
  2.1299999E-03    4.4431526E-25
  2.1650000E-03   -2.1630355E-24
  2.2000000E-03    1.7275843E-24
  2.2350000E-03    6.5730900E-24
  2.2700001E-03    4.0617280E-25
  2.3050001E-03   -8.8050090E-24
  2.3399999E-03    4.8973811E-25
  2.3749999E-03    1.8114910E-23
  2.4100000E-03    5.0687595E-24
  2.4450000E-03   -2.8402640E-23
  2.4800000E-03   -1.2159491E-23
  2.5150001E-03    5.0281171E-23
  2.5500001E-03    3.4802883E-23
  2.5849999E-03   -7.8821953E-23
  2.6199999E-03   -7.6163037E-23
  2.6550000E-03    1.2447844E-22
  2.6900000E-03    1.6390582E-22
  2.7250000E-03   -1.7828494E-22
  2.7600001E-03   -3.2292290E-22
  2.7950001E-03    2.3774995E-22
  2.8299999E-03    6.1315783E-22
  2.8649999E-03   -2.6296556E-22
  2.9000000E-03   -1.1033135E-21
  2.9350000E-03    1.8730606E-22
  2.9700000E-03    1.9051165E-21
  3.0050001E-03    1.4988223E-22
  3.0400001E-03   -3.1334040E-21
  3.0749999E-03   -1.0255869E-21
  3.1099999E-03    4.9069335E-21
  3.1450000E-03    2.9413496E-21
  3.1800000E-03   -7.2411447E-21
  3.2150000E-03   -6.6870525E-21
  3.2500001E-03    9.9280576E-21
  3.2850001E-03    1.3471393E-20
  3.3199999E-03   -1.2231781E-20
  3.3549999E-03   -2.4948202E-20
  3.3900000E-03    1.2474190E-20
  3.4250000E-03    4.3184311E-20
  3.4600000E-03   -7.3354126E-21
  3.4950001E-03   -7.0288516E-20
  3.5300001E-03   -9.0210508E-21
  3.5649999E-03    1.0760005E-19
  3.5999999E-03    4.6063162E-20
  3.6350000E-03   -1.5397962E-19
  3.6700000E-03   -1.1789494E-19
  3.7050000E-03    2.0291933E-19
  3.7400001E-03    2.4377566E-19
  3.7750001E-03   -2.3794124E-19
  3.8099999E-03   -4.4713253E-19
  3.8449999E-03    2.2613660E-19
  3.8800000E-03    7.5177359E-19
  3.9149998E-03   -1.0991637E-19
  3.9499998E-03   -1.1730391E-18
  3.9849998E-03   -2.0182408E-19
  4.0199999E-03    1.7015790E-18
  4.0549999E-03    8.4055312E-19
  4.0899999E-03   -2.2768620E-18
  4.1250000E-03   -1.9780571E-18
  4.1600000E-03    2.7486081E-18
  4.1950000E-03    3.8116168E-18
  4.2300001E-03   -2.8265911E-18
  4.2650001E-03   -6.5232278E-18
  4.3000001E-03    2.0240785E-18
  4.3350002E-03    1.0199104E-17
  4.3700002E-03    3.9212980E-19
  4.4049998E-03   -1.4695519E-17
  4.4399998E-03   -5.4208061E-18
  4.4749998E-03    1.9440068E-17
  4.5099999E-03    1.4275708E-17
  4.5449999E-03   -2.3171347E-17
  4.5799999E-03   -2.8211147E-17
  4.6150000E-03    2.3641239E-17
  4.6500000E-03    4.8162578E-17
  4.6850001E-03   -1.7339456E-17
  4.7200001E-03   -7.4133654E-17
  4.7550001E-03   -6.4587229E-19
  4.7900002E-03    1.0429424E-16
  4.8250002E-03    3.6465050E-17
  4.8600002E-03   -1.3379357E-16
  4.8949998E-03   -9.6806529E-17
  4.9299998E-03    1.5341921E-16
  4.9649999E-03    1.8740723E-16
  4.9999999E-03   -1.4835118E-16
  5.0349999E-03   -3.1052019E-16
  5.0700000E-03    9.7484320E-17
  5.1050000E-03    4.6121341E-16
  5.1400000E-03    2.6002745E-17
  5.1750001E-03   -6.2260760E-16
  5.2100001E-03   -2.5197279E-16
  5.2450001E-03    7.6053913E-16
  5.2800002E-03    6.0759865E-16
  5.3150002E-03   -8.1876259E-16
  5.3500002E-03   -1.1077946E-15
  5.3849998E-03    7.1638823E-16
  5.4199998E-03    1.7414744E-15
  5.4549999E-03   -3.5008383E-16
  5.4899999E-03   -2.4543224E-15
  5.5249999E-03   -3.9610040E-16
  5.5600000E-03    3.1301133E-15
  5.5950000E-03    1.6303502E-15
  5.6300000E-03   -3.5745155E-15
  5.6650001E-03   -3.4198449E-15
  5.7000001E-03    3.5073305E-15
  5.7350001E-03    5.7444983E-15
  5.7700002E-03   -2.5712968E-15
  5.8050002E-03   -8.4406223E-15
  5.8400002E-03    3.6611437E-16
  5.8749998E-03    1.1142193E-14
  5.9099998E-03    3.4839907E-15
  5.9449999E-03   -1.3232686E-14
  5.9799999E-03   -9.2244209E-15
  6.0149999E-03    1.3826613E-14
  6.0500000E-03    1.6827909E-14
  6.0850000E-03   -1.1803278E-14
  6.1200000E-03   -2.5827283E-14
  6.1550001E-03    5.9171126E-15
  6.1900001E-03    3.5148930E-14
  6.2250001E-03    4.9961082E-15
  6.2600002E-03   -4.2985716E-14
  6.2950002E-03   -2.1708568E-14
  6.3299998E-03    4.6763551E-14
  6.3649998E-03    4.4197170E-14
  6.3999998E-03   -4.3260975E-14
  6.4349999E-03   -7.1190070E-14
  6.4699999E-03    2.8943312E-14
  6.5049999E-03    9.9736564E-14
  6.5400000E-03   -5.4668692E-16
  6.5750000E-03   -1.2491086E-13
  6.6100000E-03   -4.4079459E-14
  6.6450001E-03    1.3978251E-13
  6.6800001E-03    1.0492028E-13
  6.7150001E-03   -1.3580204E-13
  6.7500002E-03   -1.7866183E-13
  6.7850002E-03    1.0373102E-13
  6.8199998E-03    2.5766634E-13
  6.8549998E-03   -3.5191735E-14
  6.8899998E-03   -3.2935446E-13
  6.9249999E-03   -7.5192727E-14
  6.9599999E-03    3.7630969E-13
  6.9949999E-03    2.2725284E-13
  7.0300000E-03   -3.7741969E-13
  7.0650000E-03   -4.1263238E-13
  7.1000000E-03    3.1031861E-13
  7.1350001E-03    6.1258458E-13
  7.1700001E-03   -1.5521081E-13
  7.2050001E-03   -7.9681574E-13
  7.2400002E-03   -1.0004126E-13
  7.2750002E-03    9.2416634E-13
  7.3099998E-03    4.5406289E-13
  7.3449998E-03   -9.4578815E-13
  7.3799998E-03   -8.8625656E-13
  7.4149999E-03    8.1124604E-13
  7.4499999E-03    1.3524142E-12
  7.4850000E-03   -4.7757409E-13
  7.5200000E-03   -1.7831767E-12
  7.5550000E-03   -7.9333777E-14
  7.5900001E-03    2.0867375E-12
  7.6250001E-03    8.5226422E-13
  7.6600001E-03   -2.1571135E-12
  7.6950002E-03   -1.7911499E-12
  7.7300002E-03    1.8886635E-12
  7.7650002E-03    2.7953573E-12
  7.7999998E-03   -1.1965994E-12
  7.8349998E-03   -3.7130563E-12
  7.8699999E-03    4.1330495E-14
  7.9049999E-03    4.3505759E-12
  7.9399999E-03    1.5467386E-12
  7.9750000E-03   -4.4935973E-12
  8.0100000E-03   -3.4469563E-12
  8.0450000E-03    3.9403775E-12
  8.0800001E-03    5.4384609E-12
  8.1150001E-03   -2.5446830E-12
  8.1500001E-03   -7.2062716E-12
  8.1850002E-03    2.6370784E-13
  8.2200002E-03    8.3687128E-12
  8.2550002E-03    2.7976330E-12
  8.2900003E-03   -8.5286526E-12
  8.3250003E-03   -6.3572082E-12
  8.3600003E-03    7.3452988E-12
  8.3950004E-03    9.9532171E-12
  8.4300004E-03   -4.6181149E-12
  8.4650004E-03   -1.2977314E-11
  8.5000005E-03    3.6796082E-13
  8.5349996E-03    1.4747131E-11
  8.5699996E-03    5.1009804E-12
  8.6049996E-03   -1.4615824E-11
  8.6399997E-03   -1.1177374E-11
  8.6749997E-03    1.2108282E-11
  8.7099997E-03    1.6976281E-11
  8.7449998E-03   -7.0613090E-12
  8.7799998E-03   -2.1440098E-11
  8.8149998E-03   -2.6321751E-13
  8.8499999E-03    2.3503761E-11
  8.8849999E-03    9.1279345E-12
  8.9199999E-03   -2.2300673E-11
  8.9550000E-03   -1.8355435E-11
  8.9900000E-03    1.7374898E-11
  9.0250000E-03    2.6463094E-11
  9.0600001E-03   -8.8545490E-12
  9.0950001E-03   -3.1888686E-11
  9.1300001E-03   -2.4574485E-12
  9.1650002E-03    3.3281114E-11
  9.2000002E-03    1.5117588E-11
  9.2350002E-03   -2.9803514E-11
  9.2700003E-03   -2.7220190E-11
  9.3050003E-03    2.1379263E-11
  9.3400003E-03    3.6705392E-11
  9.3750004E-03   -8.8120925E-12
  9.4100004E-03   -4.1747123E-11
  9.4450004E-03   -6.2706281E-12
  9.4799995E-03    4.1135737E-11
  9.5149996E-03    2.1658042E-11
  9.5499996E-03   -3.4564220E-11
  9.5849996E-03   -3.4938705E-11
  9.6199997E-03    2.2747552E-11
  9.6549997E-03    4.3950468E-11
  9.6899997E-03   -7.3414079E-12
  9.7249998E-03   -4.7215721E-11
  9.7599998E-03   -9.3516540E-12
  9.7949998E-03    4.4251627E-11
  9.8299999E-03    2.4845317E-11
  9.8649999E-03   -3.5649698E-11
  9.8999999E-03   -3.6978896E-11
  9.9350000E-03    2.2886975E-11
  9.9700000E-03    4.4307606E-11
  1.0005000E-02   -7.9545927E-12
  1.0040000E-02   -4.6291668E-11
  1.0075000E-02   -7.0790947E-12
  1.0110000E-02    4.3276847E-11
  1.0145000E-02    2.0490300E-11
  1.0180000E-02   -3.6257254E-11
  1.0215000E-02   -3.1193013E-11
  1.0250000E-02    2.6461857E-11
  1.0285000E-02    3.8758712E-11
  1.0320000E-02   -1.4953800E-11
  1.0355000E-02   -4.3165468E-11
  1.0390000E-02    2.4520702E-12
  1.0425000E-02    4.4470216E-11
  1.0460000E-02    1.0616853E-11
  1.0495000E-02   -4.2546182E-11
  1.0530000E-02   -2.3910257E-11
  1.0565000E-02    3.6918149E-11
  1.0600000E-02    3.6774660E-11
  1.0635000E-02   -2.6882272E-11
  1.0670000E-02   -4.7823610E-11
  1.0705000E-02    1.2057552E-11
  1.0740000E-02    5.4916193E-11
  1.0775000E-02    6.9531030E-12
  1.0810000E-02   -5.5657482E-11
  1.0845000E-02   -2.8247677E-11
  1.0880000E-02    4.8048523E-11
  1.0915000E-02    4.8590288E-11
  1.0950000E-02   -3.1206104E-11
  1.0985000E-02   -6.3597058E-11
  1.1020000E-02    6.3588908E-12
  1.1055000E-02    6.8724464E-11
  1.1090000E-02    2.2540218E-11
  1.1125000E-02   -6.1065326E-11
  1.1160000E-02   -4.9600705E-11
  1.1195000E-02    4.0598490E-11
  1.1230000E-02    6.8613802E-11
  1.1265000E-02   -1.0238112E-11
  1.1300000E-02   -7.4234660E-11
  1.1335000E-02   -2.4260214E-11
  1.1370000E-02    6.3298318E-11
  1.1405000E-02    5.4642988E-11
  1.1440000E-02   -3.6940190E-11
  1.1475000E-02   -7.2529253E-11
  1.1510000E-02    1.3089613E-12
  1.1545000E-02    7.2918845E-11
  1.1580000E-02    3.4805124E-11
  1.1615000E-02   -5.5408952E-11
  1.1650000E-02   -6.2632163E-11
  1.1685000E-02    2.3469837E-11
  1.1720000E-02    7.4384866E-11
  1.1755000E-02    1.5179290E-11
  1.1790000E-02   -6.5465945E-11
  1.1825000E-02   -4.9045514E-11
  1.1860000E-02    3.8215254E-11
  1.1895000E-02    6.7727442E-11
  1.1930000E-02   -1.4432750E-12
  1.1965000E-02   -6.6697689E-11
  1.2000000E-02   -3.4591212E-11
  1.2035000E-02    4.6464149E-11
  1.2070000E-02    6.0269019E-11
  1.2105000E-02   -1.1345856E-11
  1.2140000E-02   -6.6351119E-11
  1.2175000E-02   -2.7917875E-11
  1.2210000E-02    4.9205480E-11
  1.2245000E-02    5.6637112E-11
  1.2280000E-02   -1.5825126E-11
  1.2315000E-02   -6.5669373E-11
  1.2350000E-02   -2.1708373E-11
  1.2385000E-02    5.4335234E-11
  1.2420000E-02    5.3719706E-11
  1.2455000E-02   -2.4846342E-11
  1.2490000E-02   -7.1128117E-11
  1.2525000E-02   -1.7668160E-11
  1.2560000E-02    6.3419707E-11
  1.2595000E-02    5.7915159E-11
  1.2630000E-02   -3.0490343E-11
  1.2665000E-02   -7.8735574E-11
  1.2700000E-02   -1.3208106E-11
  1.2735000E-02    7.7248714E-11
  1.2770000E-02    5.6564017E-11
  1.2805000E-02   -5.4934800E-11
  1.2840000E-02   -9.0365361E-11
  1.2875000E-02    1.7273533E-11
  1.2910000E-02    1.1151493E-10
  1.2945000E-02    3.8963888E-11
  1.2980000E-02   -9.6713283E-11
  1.3015000E-02   -7.8856956E-11
  1.3050000E-02    7.2829125E-11
  1.3085000E-02    1.1836530E-10
  1.3120000E-02   -1.5963984E-11
  1.3155000E-02   -1.0933938E-10
  1.3190000E-02   -4.7771652E-12
  1.3225000E-02    1.3267921E-10
  1.3260000E-02    8.8169506E-11
  1.3295000E-02   -5.4930314E-11
  1.3330000E-02   -6.0525245E-11
  1.3365000E-02    8.0522075E-11
  1.3400000E-02    1.5430415E-10
  1.3435000E-02    7.0491120E-11
  1.3470000E-02   -1.3582789E-11
  1.3505000E-02    5.0683097E-11
  1.3540000E-02    1.8761583E-10
  1.3575000E-02    2.2255926E-10
  1.3610000E-02    1.3778416E-10
  1.3645000E-02    9.9657151E-11
  1.3680000E-02    2.2215491E-10
  1.3715000E-02    3.8985007E-10
  1.3750000E-02    4.1537979E-10
  1.3785000E-02    3.3766717E-10
  1.3820000E-02    3.9059755E-10
  1.3855000E-02    6.3178351E-10
  1.3890000E-02    8.2202545E-10
  1.3925000E-02    8.1215612E-10
  1.3960000E-02    8.1952795E-10
  1.3995000E-02    1.0861779E-09
  1.4030000E-02    1.4660435E-09
  1.4065000E-02    1.6655963E-09
  1.4100000E-02    1.7465830E-09
  1.4135000E-02    2.0285751E-09
  1.4170000E-02    2.5639624E-09
  1.4205000E-02    3.0782730E-09
  1.4240000E-02    3.4391945E-09
  1.4275000E-02    3.8542614E-09
  1.4310000E-02    4.5352730E-09
  1.4345000E-02    5.4195386E-09
  1.4380000E-02    6.3176921E-09
  1.4415000E-02    7.1842554E-09
  1.4450000E-02    8.1710736E-09
  1.4485000E-02    9.4671933E-09
  1.4520000E-02    1.1084576E-08
  1.4555000E-02    1.2818388E-08
  1.4590000E-02    1.4541070E-08
  1.4625000E-02    1.6491230E-08
  1.4660000E-02    1.9015044E-08
  1.4695000E-02    2.2043276E-08
  1.4730000E-02    2.5197151E-08
  1.4765000E-02    2.8459898E-08
  1.4800000E-02    3.2307351E-08
  1.4835000E-02    3.7025348E-08
  1.4870000E-02    4.2334957E-08
  1.4905000E-02    4.7945619E-08
  1.4940000E-02    5.4116533E-08
  1.4975000E-02    6.1325977E-08
  1.5010000E-02    6.9657276E-08
  1.5045000E-02    7.8864083E-08
  1.5080000E-02    8.8901423E-08
  1.5115000E-02    1.0008351E-07
  1.5150000E-02    1.1276457E-07
  1.5185000E-02    1.2705998E-07
  1.5220000E-02    1.4290583E-07
  1.5255000E-02    1.6031278E-07
  1.5290000E-02    1.7958170E-07
  1.5325000E-02    2.0118242E-07
  1.5360000E-02    2.2533031E-07
  1.5395000E-02    2.5191133E-07
  1.5430000E-02    2.8103881E-07
  1.5465000E-02    3.1328514E-07
  1.5500000E-02    3.4913634E-07
  1.5535000E-02    3.8866924E-07
  1.5570000E-02    4.3198497E-07
  1.5605000E-02    4.7957246E-07
  1.5640000E-02    5.3201290E-07
  1.5675001E-02    5.8958807E-07
  1.5710000E-02    6.5255165E-07
  1.5745001E-02    7.2153222E-07
  1.5780000E-02    7.9711236E-07
  1.5814999E-02    8.7955272E-07
  1.5850000E-02    9.6935935E-07
  1.5884999E-02    1.0674311E-06
  1.5920000E-02    1.1745029E-06
  1.5954999E-02    1.2908373E-06
  1.5990000E-02    1.4168496E-06
  1.6024999E-02    1.5536936E-06
  1.6060000E-02    1.7025144E-06
  1.6094999E-02    1.8637056E-06
  1.6130000E-02    2.0377945E-06
  1.6164999E-02    2.2258844E-06
  1.6200000E-02    2.4290641E-06
  1.6235000E-02    2.6483033E-06
  1.6270000E-02    2.8846321E-06
  1.6305000E-02    3.1388004E-06
  1.6340001E-02    3.4118525E-06
  1.6375000E-02    3.7052587E-06
  1.6410001E-02    4.0202549E-06
  1.6445000E-02    4.3577643E-06
  1.6480001E-02    4.7190897E-06
  1.6515000E-02    5.1053539E-06
  1.6550001E-02    5.5178143E-06
  1.6585000E-02    5.9584049E-06
  1.6620001E-02    6.4284495E-06
  1.6655000E-02    6.9285493E-06
  1.6690001E-02    7.4602708E-06
  1.6725000E-02    8.0258578E-06
  1.6759999E-02    8.6264854E-06
  1.6795000E-02    9.2629853E-06
  1.6829999E-02    9.9372237E-06
  1.6865000E-02    1.0651129E-05
  1.6899999E-02    1.1405655E-05
  1.6935000E-02    1.2202350E-05
  1.6969999E-02    1.3043343E-05
  1.7005000E-02    1.3929319E-05
  1.7039999E-02    1.4861158E-05
  1.7075000E-02    1.5841091E-05
  1.7109999E-02    1.6871620E-05
  1.7145000E-02    1.7952902E-05
  1.7180000E-02    1.9084529E-05
  1.7215000E-02    2.0269526E-05
  1.7250000E-02    2.1510516E-05
  1.7285001E-02    2.2805771E-05
  1.7320000E-02    2.4156505E-05
  1.7355001E-02    2.5565769E-05
  1.7390000E-02    2.7032078E-05
  1.7425001E-02    2.8556076E-05
  1.7460000E-02    3.0141104E-05
  1.7495001E-02    3.1785068E-05
  1.7530000E-02    3.3486860E-05
  1.7565001E-02    3.5249552E-05
  1.7600000E-02    3.7072921E-05
  1.7635001E-02    3.8954640E-05
  1.7670000E-02    4.0895335E-05
  1.7704999E-02    4.2894051E-05
  1.7740000E-02    4.4949084E-05
  1.7774999E-02    4.7061985E-05
  1.7810000E-02    4.9231014E-05
  1.7844999E-02    5.1451669E-05
  1.7880000E-02    5.3724030E-05
  1.7914999E-02    5.6047294E-05
  1.7950000E-02    5.8416903E-05
  1.7984999E-02    6.0832299E-05
  1.8020000E-02    6.3291023E-05
  1.8054999E-02    6.5787688E-05
  1.8090000E-02    6.8321198E-05
  1.8124999E-02    7.0889117E-05
  1.8160000E-02    7.3484436E-05
  1.8195000E-02    7.6104581E-05
  1.8230001E-02    7.8746481E-05
  1.8265000E-02    8.1403603E-05
  1.8300001E-02    8.4072752E-05
  1.8335000E-02    8.6748179E-05
  1.8370001E-02    8.9424575E-05
  1.8405000E-02    9.2099224E-05
  1.8440001E-02    9.4763396E-05
  1.8475000E-02    9.7408505E-05
  1.8510001E-02    1.0003387E-04
  1.8545000E-02    1.0263245E-04
  1.8580001E-02    1.0519409E-04
  1.8615000E-02    1.0771757E-04
  1.8650001E-02    1.1019529E-04
  1.8685000E-02    1.1261472E-04
  1.8719999E-02    1.1497407E-04
  1.8755000E-02    1.1726694E-04
  1.8789999E-02    1.1948220E-04
  1.8825000E-02    1.2161760E-04
  1.8859999E-02    1.2366560E-04
  1.8895000E-02    1.2561360E-04
  1.8929999E-02    1.2746324E-04
  1.8965000E-02    1.2920852E-04
  1.8999999E-02    1.3082942E-04
  1.9035000E-02    1.3232633E-04
  1.9069999E-02    1.3370244E-04
  1.9105000E-02    1.3494189E-04
  1.9140000E-02    1.3603883E-04
  1.9175000E-02    1.3699514E-04
  1.9210000E-02    1.3779833E-04
  1.9245001E-02    1.3844312E-04
  1.9280000E-02    1.3893169E-04
  1.9315001E-02    1.3925399E-04
  1.9350000E-02    1.3940566E-04
  1.9385001E-02    1.3939048E-04
  1.9420000E-02    1.3920112E-04
  1.9455001E-02    1.3883281E-04
  1.9490000E-02    1.3828839E-04
  1.9525001E-02    1.3756308E-04
  1.9560000E-02    1.3665663E-04
  1.9595001E-02    1.3557452E-04
  1.9630000E-02    1.3430986E-04
  1.9664999E-02    1.3286166E-04
  1.9700000E-02    1.3124304E-04
  1.9734999E-02    1.2945203E-04
  1.9770000E-02    1.2748122E-04
  1.9804999E-02    1.2534295E-04
  1.9840000E-02    1.2304586E-04
  1.9874999E-02    1.2058447E-04
  1.9910000E-02    1.1796611E-04
  1.9944999E-02    1.1520283E-04
  1.9980000E-02    1.1229475E-04
  2.0014999E-02    1.0925040E-04
  2.0050000E-02    1.0608165E-04
  2.0085000E-02    1.0279040E-04
  2.0120000E-02    9.9386416E-05
  2.0155000E-02    9.5882795E-05
  2.0190001E-02    9.2282629E-05
  2.0225000E-02    8.8595756E-05
  2.0260001E-02    8.4839274E-05
  2.0295000E-02    8.1019381E-05
  2.0330001E-02    7.7143544E-05
  2.0365000E-02    7.3228934E-05
  2.0400001E-02    6.9283320E-05
  2.0435000E-02    6.5314496E-05
  2.0470001E-02    6.1339422E-05
  2.0505000E-02    5.7367473E-05
  2.0540001E-02    5.3405445E-05
  2.0575000E-02    4.9469905E-05
  2.0609999E-02    4.5574092E-05
  2.0645000E-02    4.1723604E-05
  2.0679999E-02    3.7928290E-05
  2.0715000E-02    3.4201428E-05
  2.0749999E-02    3.0552907E-05
  2.0785000E-02    2.6992897E-05
  2.0819999E-02    2.3528650E-05
  2.0855000E-02    2.0170181E-05
  2.0889999E-02    1.6930071E-05
  2.0925000E-02    1.3813312E-05
  2.0959999E-02    1.0822702E-05
  2.0995000E-02    7.9663278E-06
  2.1029999E-02    5.2509804E-06
  2.1065000E-02    2.6838106E-06
  2.1100000E-02    2.7352536E-07
  2.1135001E-02   -1.9822003E-06
  2.1170000E-02   -4.0824584E-06
  2.1205001E-02   -6.0168218E-06
  2.1240000E-02   -7.7866434E-06
  2.1275001E-02   -9.3974922E-06
  2.1310000E-02   -1.0842930E-05
  2.1345001E-02   -1.2121826E-05
  2.1380000E-02   -1.3240709E-05
  2.1415001E-02   -1.4198578E-05
  2.1450000E-02   -1.4996493E-05
  2.1485001E-02   -1.5641201E-05
  2.1520000E-02   -1.6135309E-05
  2.1555001E-02   -1.6485270E-05
  2.1590000E-02   -1.6698059E-05
  2.1624999E-02   -1.6773623E-05
  2.1660000E-02   -1.6720884E-05
  2.1694999E-02   -1.6553584E-05
  2.1730000E-02   -1.6270500E-05
  2.1764999E-02   -1.5876851E-05
  2.1800000E-02   -1.5392669E-05
  2.1834999E-02   -1.4823623E-05
  2.1870000E-02   -1.4169556E-05
  2.1904999E-02   -1.3445889E-05
  2.1940000E-02   -1.2664732E-05
  2.1974999E-02   -1.1829165E-05
  2.2010000E-02   -1.0950336E-05
  2.2045000E-02   -1.0040421E-05
  2.2080000E-02   -9.1050078E-06
  2.2115000E-02   -8.1522903E-06
  2.2150001E-02   -7.1936888E-06
  2.2185000E-02   -6.2381832E-06
  2.2220001E-02   -5.2925675E-06
  2.2255000E-02   -4.3631317E-06
  2.2290001E-02   -3.4597765E-06
  2.2325000E-02   -2.5923596E-06
  2.2360001E-02   -1.7632365E-06
  2.2395000E-02   -9.7502948E-07
  2.2430001E-02   -2.3748906E-07
  2.2465000E-02    4.4188661E-07
  2.2500001E-02    1.0630780E-06
  2.2535000E-02    1.6237429E-06
  2.2569999E-02    2.1156609E-06
  2.2605000E-02    2.5355018E-06
  2.2639999E-02    2.8868262E-06
  2.2675000E-02    3.1682705E-06
  2.2709999E-02    3.3744254E-06
  2.2745000E-02    3.5079856E-06
  2.2779999E-02    3.5723278E-06
  2.2815000E-02    3.5634703E-06
  2.2849999E-02    3.4841412E-06
  2.2885000E-02    3.3427925E-06
  2.2919999E-02    3.1368436E-06
  2.2955000E-02    2.8644538E-06
  2.2990000E-02    2.5378847E-06
  2.3025000E-02    2.1649050E-06
  2.3060000E-02    1.7410545E-06
  2.3095001E-02    1.2695183E-06
  2.3130000E-02    7.6238734E-07
  2.3165001E-02    2.2356195E-07
  2.3200000E-02   -3.4737226E-07
  2.3235001E-02   -9.4161055E-07
  2.3270000E-02   -1.5481070E-06
  2.3305001E-02   -2.1636436E-06
  2.3340000E-02   -2.7851358E-06
  2.3375001E-02   -3.4051641E-06
  2.3410000E-02   -4.0210966E-06
  2.3445001E-02   -4.6295631E-06
  2.3480000E-02   -5.2190403E-06
  2.3514999E-02   -5.7845805E-06
  2.3550000E-02   -6.3297925E-06
  2.3584999E-02   -6.8471472E-06
  2.3620000E-02   -7.3241731E-06
  2.3654999E-02   -7.7630957E-06
  2.3690000E-02   -8.1677272E-06
  2.3724999E-02   -8.5298934E-06
  2.3760000E-02   -8.8445186E-06
  2.3794999E-02   -9.1143938E-06
  2.3830000E-02   -9.3364715E-06
  2.3864999E-02   -9.5061287E-06
  2.3900000E-02   -9.6279900E-06
  2.3934999E-02   -9.7036182E-06
  2.3970000E-02   -9.7272887E-06
  2.4005000E-02   -9.7033653E-06
  2.4040001E-02   -9.6402337E-06
  2.4075000E-02   -9.5316082E-06
  2.4110001E-02   -9.3741664E-06
  2.4145000E-02   -9.1797856E-06
  2.4180001E-02   -8.9524610E-06
  2.4215000E-02   -8.6886203E-06
  2.4250001E-02   -8.3953546E-06
  2.4285000E-02   -8.0779064E-06
  2.4320001E-02   -7.7352406E-06
  2.4355000E-02   -7.3752308E-06
  2.4390001E-02   -7.0048168E-06
  2.4425000E-02   -6.6225780E-06
  2.4460001E-02   -6.2335880E-06
  2.4495000E-02   -5.8443634E-06
  2.4529999E-02   -5.4556062E-06
  2.4565000E-02   -5.0737217E-06
  2.4599999E-02   -4.7051449E-06
  2.4635000E-02   -4.3495706E-06
  2.4669999E-02   -4.0134264E-06
  2.4705000E-02   -3.7020811E-06
  2.4739999E-02   -3.4108541E-06
  2.4775000E-02   -3.1440832E-06
  2.4809999E-02   -2.9128801E-06
  2.4845000E-02   -2.7153080E-06
  2.4879999E-02   -2.5470965E-06
  2.4915000E-02   -2.4143771E-06
  2.4950000E-02   -2.3217988E-06
  2.4985000E-02   -2.2661973E-06
  2.5020000E-02   -2.2447491E-06
  2.5055001E-02   -2.2611330E-06
  2.5090000E-02   -2.3185694E-06
  2.5125001E-02   -2.4104002E-06
  2.5160000E-02   -2.5321501E-06
  2.5195001E-02   -2.6906118E-06
  2.5230000E-02   -2.8847408E-06
  2.5265001E-02   -3.1045549E-06
  2.5300000E-02   -3.3497281E-06
  2.5335001E-02   -3.6216750E-06
  2.5370000E-02   -3.9147203E-06
  2.5405001E-02   -4.2265697E-06
  2.5440000E-02   -4.5539787E-06
  2.5474999E-02   -4.8905185E-06
  2.5510000E-02   -5.2363812E-06
  2.5544999E-02   -5.5891282E-06
  2.5580000E-02   -5.9405638E-06
  2.5614999E-02   -6.2896702E-06
  2.5650000E-02   -6.6346261E-06
  2.5684999E-02   -6.9697317E-06
  2.5720000E-02   -7.2952234E-06
  2.5754999E-02   -7.6055571E-06
  2.5790000E-02   -7.8927687E-06
  2.5824999E-02   -8.1623684E-06
  2.5860000E-02   -8.4127387E-06
  2.5895000E-02   -8.6326781E-06
  2.5930000E-02   -8.8277720E-06
  2.5965000E-02   -9.0004805E-06
  2.6000001E-02   -9.1386119E-06
  2.6035000E-02   -9.2455011E-06
  2.6070001E-02   -9.3265171E-06
  2.6105000E-02   -9.3735416E-06
  2.6140001E-02   -9.3920717E-06
  2.6175000E-02   -9.3855160E-06
  2.6210001E-02   -9.3409608E-06
  2.6245000E-02   -9.2678301E-06
  2.6280001E-02   -9.1805523E-06
  2.6315000E-02   -9.0647736E-06
  2.6350001E-02   -8.9189080E-06
  2.6385000E-02   -8.7587623E-06
  2.6419999E-02   -8.5798401E-06
  2.6455000E-02   -8.3821906E-06
  2.6489999E-02   -8.1789949E-06
  2.6525000E-02   -7.9660249E-06
  2.6559999E-02   -7.7421764E-06
  2.6595000E-02   -7.5186313E-06
  2.6629999E-02   -7.2932407E-06
  2.6665000E-02   -7.0673882E-06
  2.6699999E-02   -6.8507275E-06
  2.6735000E-02   -6.6399916E-06
  2.6769999E-02   -6.4400560E-06
  2.6805000E-02   -6.2622444E-06
  2.6839999E-02   -6.0968769E-06
  2.6875000E-02   -5.9429203E-06
  2.6910000E-02   -5.8150190E-06
  2.6945001E-02   -5.7076381E-06
  2.6980000E-02   -5.6180934E-06