 -4.8000002E-03    1.0000000E-24
 -4.7650002E-03    1.0000002E-24
 -4.7300002E-03    1.0000001E-24
 -4.6950001E-03    1.0000002E-24
 -4.6600001E-03    1.0000002E-24
 -4.6250001E-03    1.0000000E-24
 -4.5900000E-03    1.0000000E-24
 -4.5550000E-03    1.0000001E-24
 -4.5200000E-03    1.0000001E-24
 -4.4849999E-03    9.9999972E-25
 -4.4499999E-03    1.0000000E-24
 -4.4149999E-03    1.0000005E-24
 -4.3799998E-03    1.0000006E-24
 -4.3449998E-03    9.9999992E-25
 -4.3100002E-03    9.9999972E-25
 -4.2750002E-03    1.0000006E-24
 -4.2400002E-03    1.0000005E-24
 -4.2050001E-03    9.9999963E-25
 -4.1700001E-03    9.9999963E-25
 -4.1350001E-03    1.0000004E-24
 -4.1000000E-03    1.0000007E-24
 -4.0650000E-03    1.0000002E-24
 -4.0300000E-03    9.9999982E-25
 -3.9949999E-03    9.9999963E-25
 -3.9599999E-03    1.0000000E-24
 -3.9249999E-03    1.0000005E-24
 -3.8900001E-03    1.0000000E-24
 -3.8550000E-03    9.9999963E-25
 -3.8200000E-03    1.0000005E-24
 -3.7849999E-03    1.0000008E-24
 -3.7499999E-03    9.9999982E-25
 -3.7150001E-03    9.9999913E-25
 -3.6800001E-03    1.0000002E-24
 -3.6450000E-03    1.0000008E-24
 -3.6100000E-03    1.0000000E-24
 -3.5750000E-03    9.9999972E-25
 -3.5399999E-03    1.0000005E-24
 -3.5049999E-03    1.0000007E-24
 -3.4700001E-03    1.0000001E-24
 -3.4350001E-03    9.9999953E-25
 -3.4000000E-03    9.9999963E-25
 -3.3650000E-03    1.0000001E-24
 -3.3300000E-03    1.0000001E-24
 -3.2949999E-03    1.0000003E-24
 -3.2599999E-03    1.0000003E-24
 -3.2250001E-03    9.9999992E-25
 -3.1900001E-03    1.0000001E-24
 -3.1550000E-03    1.0000007E-24
 -3.1200000E-03    9.9999992E-25
 -3.0850000E-03    9.9999933E-25
 -3.0499999E-03    1.0000004E-24
 -3.0149999E-03    1.0000013E-24
 -2.9800001E-03    1.0000002E-24
 -2.9450001E-03    9.9999923E-25
 -2.9100000E-03    1.0000000E-24
 -2.8750000E-03    1.0000002E-24
 -2.8400000E-03    9.9999923E-25
 -2.8049999E-03    9.9999923E-25
 -2.7699999E-03    1.0000011E-24
 -2.7350001E-03    1.0000012E-24
 -2.7000001E-03    9.9999972E-25
 -2.6650000E-03    9.9999972E-25
 -2.6300000E-03    1.0000003E-24
 -2.5950000E-03    9.9999972E-25
 -2.5599999E-03    9.9999972E-25
 -2.5249999E-03    1.0000009E-24
 -2.4900001E-03    1.0000008E-24
 -2.4550001E-03    9.9999972E-25
 -2.4200000E-03    1.0000003E-24
 -2.3850000E-03    1.0000011E-24
 -2.3500000E-03    9.9999943E-25
 -2.3149999E-03    9.9999844E-25
 -2.2799999E-03    1.0000006E-24
 -2.2450001E-03    1.0000013E-24
 -2.2100001E-03    9.9999903E-25
 -2.1750000E-03    9.9999884E-25
 -2.1400000E-03    1.0000010E-24
 -2.1050000E-03    1.0000007E-24
 -2.0699999E-03    9.9999893E-25
 -2.0349999E-03    1.0000000E-24
 -2.0000001E-03    1.0000014E-24
 -1.9650001E-03    1.0000006E-24
 -1.9300000E-03    9.9999963E-25
 -1.8950000E-03    1.0000007E-24
 -1.8600000E-03    1.0000006E-24
 -1.8250000E-03    9.9999913E-25
 -1.7900000E-03    9.9999933E-25
 -1.7550000E-03    1.0000008E-24
 -1.7199999E-03    1.0000010E-24
 -1.6850000E-03    9.9999982E-25
 -1.6500000E-03    9.9999943E-25
 -1.6150000E-03    9.9999943E-25
 -1.5800000E-03    9.9999943E-25
 -1.5450000E-03    9.9999982E-25
 -1.5100000E-03    1.0000008E-24
 -1.4750001E-03    1.0000009E-24
 -1.4400000E-03    1.0000000E-24
 -1.4050000E-03    9.9999972E-25
 -1.3700000E-03    1.0000002E-24
 -1.3350000E-03    9.9999953E-25
 -1.3000000E-03    9.9999913E-25
 -1.2650000E-03    1.0000009E-24
 -1.2300001E-03    1.0000021E-24
 -1.1950000E-03    1.0000000E-24
 -1.1600000E-03    9.9999874E-25
 -1.1250000E-03    1.0000007E-24
 -1.0900000E-03    1.0000014E-24
 -1.0550000E-03    9.9999913E-25
 -1.0200000E-03    9.9999893E-25
 -9.8500005E-04    1.0000014E-24
 -9.5000002E-04    1.0000009E-24
 -9.1499998E-04    9.9999913E-25
 -8.8000001E-04    9.9999923E-25
 -8.4499997E-04    1.0000006E-24
 -8.1000000E-04    1.0000004E-24
 -7.7500002E-04    1.0000001E-24
 -7.3999999E-04    1.0000005E-24
 -7.0500001E-04    1.0000001E-24
 -6.6999998E-04    9.9999972E-25
 -6.3500000E-04    1.0000004E-24
 -6.0000003E-04    1.0000004E-24
 -5.6499999E-04    9.9999913E-25
 -5.3000002E-04    9.9999893E-25
 -4.9499999E-04    1.0000009E-24
 -4.6000001E-04    1.0000013E-24
 -4.2500001E-04    9.9999893E-25
 -3.9000000E-04    9.9999884E-25
 -3.5500000E-04    1.0000017E-24
 -3.1999999E-04    1.0000015E-24
 -2.8499999E-04    9.9999913E-25
 -2.5000001E-04    9.9999923E-25
 -2.1499999E-04    1.0000012E-24
 -1.8000000E-04    1.0000007E-24
 -1.4500000E-04    9.9999884E-25
 -1.1000000E-04    9.9999923E-25
 -7.5000004E-05    1.0000000E-24
 -3.9999999E-05    1.0000003E-24
 -4.9999999E-06    1.0000009E-24
  2.9999999E-05    1.0000009E-24
  6.5000000E-05    1.0000001E-24
  9.9999997E-05    9.9999992E-25
  1.3499999E-04    1.0000009E-24
  1.7000000E-04    1.0000009E-24
  2.0500000E-04    9.9999913E-25
  2.3999999E-04    9.9999864E-25
  2.7500000E-04    1.0000005E-24
  3.1000000E-04    1.0000012E-24
  3.4500001E-04    9.9999953E-25
  3.8000001E-04    9.9999903E-25
  4.1499999E-04    1.0000010E-24
  4.4999999E-04    1.0000005E-24
  4.8500000E-04    9.9999874E-25
  5.2000000E-04    9.9999992E-25
  5.5499998E-04    1.0000014E-24
  5.9000001E-04    1.0000001E-24
  6.2499999E-04    9.9999893E-25
  6.6000002E-04    1.0000004E-24
  6.9500000E-04    1.0000015E-24
  7.3000003E-04    1.0000004E-24
  7.6500000E-04    9.9999992E-25
  7.9999998E-04    1.0000006E-24
  8.3500001E-04    1.0000002E-24
  8.6999999E-04    9.9999893E-25
  9.0500002E-04    9.9999982E-25
  9.4000000E-04    1.0000012E-24
  9.7499997E-04    9.9999953E-25
  1.0100000E-03    9.9999824E-25
  1.0450000E-03    1.0000008E-24
  1.0800000E-03    1.0000018E-24
  1.1150000E-03    9.9999933E-25
  1.1500000E-03    9.9999893E-25
  1.1849999E-03    1.0000010E-24
  1.2200000E-03    1.0000005E-24
  1.2550000E-03    9.9999893E-25
  1.2900000E-03    1.0000001E-24
  1.3250000E-03    1.0000016E-24
  1.3600000E-03    1.0000008E-24
  1.3950000E-03    9.9999893E-25
  1.4299999E-03    9.9999864E-25
  1.4650000E-03    9.9999972E-25
  1.5000000E-03    1.0000001E-24
  1.5350000E-03    9.9999953E-25
  1.5700000E-03    1.0000007E-24
  1.6050000E-03    1.0000017E-24
  1.6400000E-03    1.0000000E-24
  1.6749999E-03    9.9999893E-25
  1.7100000E-03    1.0000004E-24
  1.7450000E-03    1.0000003E-24
  1.7800000E-03    9.9999864E-25
  1.8150000E-03    1.0000000E-24
  1.8500000E-03    1.0000020E-24
  1.8850000E-03    1.0000004E-24
  1.9200000E-03    9.9999943E-25
  1.9550000E-03    1.0000009E-24
  1.9900000E-03    1.0000004E-24
  2.0250001E-03    9.9999884E-25
  2.0600001E-03    1.0000005E-24
  2.0949999E-03    1.0000021E-24
  2.1299999E-03    9.9999933E-25
  2.1650000E-03    9.9999746E-25
  2.2000000E-03    1.0000008E-24
  2.2350000E-03    1.0000019E-24
  2.2700001E-03    9.9999844E-25
  2.3050001E-03    9.9999874E-25
  2.3399999E-03    1.0000017E-24
  2.3749999E-03    1.0000010E-24
  2.4100000E-03    9.9999943E-25
  2.4450000E-03    1.0000006E-24
  2.4800000E-03    1.0000011E-24
  2.5150001E-03    9.9999972E-25
  2.5500001E-03    9.9999963E-25
  2.5849999E-03    1.0000006E-24
  2.6199999E-03    9.9999972E-25
  2.6550000E-03    9.9999913E-25
  2.6900000E-03    9.9999963E-25
  2.7250000E-03    1.0000002E-24
  2.7600001E-03    1.0000010E-24
  2.7950001E-03    9.9999953E-25
  2.8299999E-03    9.9999824E-25
  2.8649999E-03    1.0000002E-24
  2.9000000E-03    1.0000043E-24
  2.9350000E-03    9.9999884E-25
  2.9700000E-03    9.9999243E-25
  3.0050001E-03    1.0000025E-24
  3.0400001E-03    1.0000103E-24
  3.0749999E-03    9.9999114E-25
  3.1099999E-03    9.9998247E-25
  3.1450000E-03    1.0000269E-24
  3.1800000E-03    1.0000245E-24
  3.2150000E-03    9.9995653E-25
  3.2500001E-03    9.9998543E-25
  3.2850001E-03    1.0000405E-24
  3.3199999E-03    9.9998365E-25
  3.3549999E-03    9.9993001E-25
  3.3900000E-03    9.9998976E-25
  3.4250000E-03    1.0001403E-24
  3.4600000E-03    1.0001177E-24
  3.4950001E-03    9.9991058E-25
  3.5300001E-03    1.0000764E-24
  3.5649999E-03    1.0001865E-24
  3.5999999E-03    9.9985694E-25
  3.6350000E-03    9.9980004E-25
  3.6700000E-03    9.9982982E-25
  3.7050000E-03    9.9960510E-25
  3.7400001E-03    9.9960667E-25
  3.7750001E-03    9.9943115E-25
  3.8099999E-03    1.0001408E-24
  3.8449999E-03    9.9958153E-25
  3.8800000E-03    1.0002669E-24
  3.9149998E-03    1.0012301E-24
  3.9499998E-03    9.9935375E-25
  3.9849998E-03    9.9835416E-25
  4.0199999E-03    9.9739175E-25
  4.0549999E-03    9.9789080E-25
  4.0899999E-03    1.0040151E-24
  4.1250000E-03    9.8938560E-25
  4.1600000E-03    9.9370806E-25
  4.1950000E-03    1.0123461E-24
  4.2300001E-03    9.9173611E-25
  4.2650001E-03    9.7183068E-25
  4.3000001E-03    1.0260164E-24
  4.3350002E-03    1.0049326E-24
  4.3700002E-03    9.6572934E-25
  4.4049998E-03    9.1036580E-25
  4.4399998E-03    1.0392438E-24
  4.4749998E-03    1.1186207E-24
  4.5099999E-03    9.4600062E-25
  4.5449999E-03    1.0172534E-24
  4.5799999E-03    1.1707335E-24
  4.6150000E-03    1.0489822E-24
  4.6500000E-03    1.0757948E-24
  4.6850001E-03    1.2865272E-24
  4.7200001E-03    9.6425013E-25
  4.7550001E-03    6.2361634E-25
  4.7900002E-03    8.3386246E-25
  4.8250002E-03    1.2039074E-24
  4.8600002E-03    8.7978758E-25
  4.8949998E-03    7.2669413E-25
  4.9299998E-03    2.3025369E-24
  4.9649999E-03    3.4405951E-24
  4.9999999E-03    1.5109139E-25
  5.0349999E-03   -1.2049602E-24
  5.0700000E-03    2.9657376E-24
  5.1050000E-03    2.9076561E-24
  5.1400000E-03   -7.9436464E-25
  5.1750001E-03   -3.7173911E-24
  5.2100001E-03   -1.3793737E-24
  5.2450001E-03    6.4538486E-24
  5.2800002E-03    9.3026533E-24
  5.3150002E-03   -7.6729716E-24
  5.3500002E-03   -1.2215909E-23
  5.3849998E-03    1.7774117E-24
  5.4199998E-03    1.4165460E-23
  5.4549999E-03   -2.8033273E-24
  5.4899999E-03   -4.1119514E-23
  5.5249999E-03   -1.1928797E-23
  5.5600000E-03    5.4939555E-23
  5.5950000E-03    2.1575254E-23
  5.6300000E-03   -5.0951914E-23
  5.6650001E-03   -7.1383266E-23
  5.7000001E-03   -6.4848607E-25
  5.7350001E-03    1.3655637E-22
  5.7700002E-03    6.2037627E-24
  5.8050002E-03   -1.4970223E-22
  5.8400002E-03   -6.8336875E-23
  5.8749998E-03    2.0570369E-22
  5.9099998E-03    2.1957995E-22
  5.9449999E-03   -2.5693914E-22
  5.9799999E-03   -4.4362983E-22
  6.0149999E-03    1.6036418E-22
  6.0500000E-03    6.7299801E-22
  6.0850000E-03    3.6184176E-22
  6.1200000E-03   -4.9704018E-22
  6.1550001E-03   -5.6037362E-22
  6.1900001E-03    3.0558500E-22
  6.2250001E-03    6.0918989E-22
  6.2600002E-03   -4.6264256E-22
  6.2950002E-03   -4.5396575E-22
  6.3299998E-03    1.7747073E-21
  6.3649998E-03    1.3597503E-21
  6.3999998E-03   -3.5994239E-22
  6.4349999E-03   -2.7694267E-21
  6.4699999E-03    2.8380610E-22
  6.5049999E-03    2.4257738E-21
  6.5400000E-03    1.1997674E-21
  6.5750000E-03   -2.8238276E-21
  6.6100000E-03   -2.2483062E-21
  6.6450001E-03    1.3130972E-21
  6.6800001E-03    1.8930836E-21
  6.7150001E-03   -3.4953248E-21
  6.7500002E-03   -5.7934656E-21
  6.7850002E-03    1.0501429E-21
  6.8199998E-03    8.1437038E-21
  6.8549998E-03    6.2269098E-21
  6.8899998E-03   -5.5898277E-21
  6.9249999E-03   -1.5920962E-20
  6.9599999E-03    2.3087845E-21
  6.9949999E-03    1.8438567E-20
  7.0300000E-03    3.0684140E-21
  7.0650000E-03   -1.6308129E-20
  7.1000000E-03   -5.5949560E-21
  7.1350001E-03    1.2961848E-20
  7.1700001E-03    2.9342242E-20
  7.2050001E-03   -2.3775362E-21
  7.2400002E-03   -5.2362375E-20
  7.2750002E-03   -1.4106659E-20
  7.3099998E-03    6.1782960E-20
  7.3449998E-03    3.5881095E-20
  7.3799998E-03   -4.0035878E-20
  7.4149999E-03   -3.3391007E-20
  7.4499999E-03    9.3392581E-20
  7.4850000E-03    6.9463752E-20
  7.5200000E-03    9.5960344E-20
  7.5550000E-03    8.7091682E-20
  7.5900001E-03   -1.5215090E-19
  7.6250001E-03   -8.4959184E-20
  7.6600001E-03    2.8985766E-19
  7.6950002E-03    1.6622603E-19
  7.7300002E-03   -4.5328722E-19
  7.7650002E-03   -4.4254457E-19
  7.7999998E-03    2.9186367E-19
  7.8349998E-03    7.0405623E-19
  7.8699999E-03   -7.1805946E-20
  7.9049999E-03   -9.4479887E-19
  7.9399999E-03   -2.4014059E-19
  7.9750000E-03    1.2991047E-18
  8.0100000E-03    1.3023514E-18
  8.0450000E-03   -1.4311726E-18
  8.0800001E-03   -2.5882000E-18
  8.1150001E-03    5.1072085E-19
  8.1500001E-03    3.2012779E-18
  8.1850002E-03    5.9756008E-19
  8.2200002E-03   -3.9100418E-18
  8.2550002E-03   -3.6633426E-18
  8.2900003E-03    2.8946251E-18
  8.3250003E-03    6.3857942E-18
  8.3600003E-03   -1.5371581E-18
  8.3950004E-03   -8.8462640E-18
  8.4300004E-03   -7.2959150E-19
  8.4650004E-03    1.2215490E-17
  8.5000005E-03    5.7372929E-18
  8.5349996E-03   -1.3838753E-17
  8.5699996E-03   -1.3935024E-17
  8.6049996E-03    1.2958503E-17
  8.6399997E-03    2.4956329E-17
  8.6749997E-03   -5.0207245E-18
  8.7099997E-03   -3.5610238E-17
  8.7449998E-03   -6.2489351E-18
  8.7799998E-03    4.2930307E-17
  8.8149998E-03    2.5786555E-17
  8.8499999E-03   -4.3487595E-17
  8.8849999E-03   -4.8551935E-17
  8.9199999E-03    3.3561252E-17
  8.9550000E-03    7.6177041E-17
  8.9900000E-03   -1.0989988E-17
  9.0250000E-03   -9.8925296E-17
  9.0600001E-03   -2.9737636E-17
  9.0950001E-03    1.1094672E-16
  9.1300001E-03    8.2865359E-17
  9.1650002E-03   -1.1267249E-16
  9.2000002E-03   -1.5035359E-16
  9.2350002E-03    7.5459902E-17
  9.2700003E-03    2.1104570E-16
  9.3050003E-03   -1.5658273E-17
  9.3400003E-03   -2.6628739E-16
  9.3750004E-03   -8.6846017E-17
  9.4100004E-03    2.9458075E-16
  9.4450004E-03    2.1881074E-16
  9.4799995E-03   -2.7873956E-16
  9.5149996E-03   -3.8282816E-16
  9.5499996E-03    1.5773530E-16
  9.5849996E-03    4.9307641E-16
  9.6199997E-03   -5.5663287E-18
  9.6549997E-03   -5.9165760E-16
  9.6899997E-03   -2.3832503E-16
  9.7249998E-03    6.2094588E-16
  9.7599998E-03    5.1391188E-16
  9.7949998E-03   -5.2747992E-16
  9.8299999E-03   -8.1379522E-16
  9.8649999E-03    3.3477828E-16
  9.8999999E-03    1.0476264E-15
  9.9350000E-03   -3.4170950E-17
  9.9700000E-03   -1.2201132E-15
  1.0005000E-02   -3.5014071E-16
  1.0040000E-02    1.2617291E-15
  1.0075000E-02    7.7200303E-16
  1.0110000E-02   -1.2367373E-15
  1.0145000E-02   -1.3276334E-15
  1.0180000E-02    9.4283799E-16
  1.0215000E-02    1.7558097E-15
  1.0250000E-02   -5.4564544E-16
  1.0285000E-02   -2.1059128E-15
  1.0320000E-02   -1.3921122E-17
  1.0355000E-02    2.3111485E-15
  1.0390000E-02    5.7635907E-16
  1.0425000E-02   -2.5072173E-15
  1.0460000E-02   -1.3723847E-15
  1.0495000E-02    2.5239983E-15
  1.0530000E-02    2.2109015E-15
  1.0565000E-02   -2.3590450E-15
  1.0600000E-02   -3.2763455E-15
  1.0635000E-02    1.9661392E-15
  1.0670000E-02    4.5279590E-15
  1.0705000E-02   -1.1312169E-15
  1.0740000E-02   -5.8842913E-15
  1.0775000E-02   -1.7983020E-16
  1.0810000E-02    7.4888190E-15
  1.0845000E-02    2.4025329E-15
  1.0880000E-02   -8.8685408E-15
  1.0915000E-02   -5.6629298E-15
  1.0950000E-02    9.6351158E-15
  1.0985000E-02    1.0171835E-14
  1.1020000E-02   -8.9515204E-15
  1.1055000E-02   -1.5710914E-14
  1.1090000E-02    6.0948395E-15
  1.1125000E-02    2.1755436E-14
  1.1160000E-02   -3.6431657E-16
  1.1195000E-02   -2.7372336E-14
  1.1230000E-02   -8.9817027E-15
  1.1265000E-02    3.0728895E-14
  1.1300000E-02    2.1961569E-14
  1.1335000E-02   -2.9764758E-14
  1.1370000E-02   -3.7628199E-14
  1.1405000E-02    2.2363584E-14
  1.1440000E-02    5.3932109E-14
  1.1475000E-02   -6.8041682E-15
  1.1510000E-02   -6.7473493E-14
  1.1545000E-02   -1.7527775E-14
  1.1580000E-02    7.3873762E-14
  1.1615000E-02    4.9341600E-14
  1.1650000E-02   -6.8494960E-14
  1.1685000E-02   -8.5132171E-14
  1.1720000E-02    4.7361800E-14
  1.1755000E-02    1.1889417E-13
  1.1790000E-02   -8.3493740E-15
  1.1825000E-02   -1.4235665E-13
  1.1860000E-02   -4.7002078E-14
  1.1895000E-02    1.4679229E-13
  1.1930000E-02    1.1320472E-13
  1.1965000E-02   -1.2437326E-13
  1.2000000E-02   -1.8009796E-13
  1.2035000E-02    7.0936733E-14
  1.2070000E-02    2.3431916E-13
  1.2105000E-02    1.2172849E-14
  1.2140000E-02   -2.6114408E-13
  1.2175000E-02   -1.1669158E-13
  1.2210000E-02    2.4746801E-13
  1.2245000E-02    2.2692150E-13
  1.2280000E-02   -1.8615843E-13
  1.2315000E-02   -3.2172659E-13
  1.2350000E-02    7.9529875E-14
  1.2385000E-02    3.7894777E-13
  1.2420000E-02    5.9357094E-14
  1.2455000E-02   -3.8015093E-13
  1.2490000E-02   -2.0681128E-13
  1.2525000E-02    3.1692859E-13
  1.2560000E-02    3.3268421E-13
  1.2595000E-02   -1.9495358E-13
  1.2630000E-02   -4.0648626E-13
  1.2665000E-02    3.6446957E-14
  1.2700000E-02    4.0661341E-13
  1.2735000E-02    1.2295396E-13
  1.2770000E-02   -3.2847856E-13
  1.2805000E-02   -2.4179560E-13
  1.2840000E-02    1.8954930E-13
  1.2875000E-02    2.8389286E-13
  1.2910000E-02   -2.9426101E-14
  1.2945000E-02   -2.3120945E-13
  1.2980000E-02   -9.6998676E-14
  1.3015000E-02    9.5320534E-14
  1.3050000E-02    1.3467671E-13
  1.3085000E-02    7.9053687E-14
  1.3120000E-02   -4.6088801E-14
  1.3155000E-02   -2.1823709E-13
  1.3190000E-02   -1.6932630E-13
  1.3225000E-02    2.3612433E-13
  1.3260000E-02    4.6264403E-13
  1.3295000E-02   -5.9868356E-14
  1.3330000E-02   -7.3569867E-13
  1.3365000E-02   -3.4175386E-13
  1.3400000E-02    8.5467419E-13
  1.3435000E-02    9.3104658E-13
  1.3470000E-02   -6.8334482E-13
  1.3505000E-02   -1.5903383E-12
  1.3540000E-02    1.2464057E-13
  1.3575000E-02    2.1307511E-12
  1.3610000E-02    8.3592188E-13
  1.3645000E-02   -2.3243955E-12
  1.3680000E-02   -2.0972753E-12
  1.3715000E-02    1.9597295E-12
  1.3750000E-02    3.4357061E-12
  1.3785000E-02   -9.0568991E-13
  1.3820000E-02   -4.5284718E-12
  1.3855000E-02   -8.2525881E-13
  1.3890000E-02    5.0158935E-12
  1.3925000E-02    3.0423459E-12
  1.3960000E-02   -4.5862259E-12
  1.3995000E-02   -5.3791377E-12
  1.4030000E-02    3.0689249E-12
  1.4065000E-02    7.3453630E-12
  1.4100000E-02   -5.1053926E-13
  1.4135000E-02   -8.4218604E-12
  1.4170000E-02   -2.7902056E-12
  1.4205000E-02    8.1818259E-12
  1.4240000E-02    6.3061826E-12
  1.4275000E-02   -6.4090391E-12
  1.4310000E-02   -9.3663749E-12
  1.4345000E-02    3.1827698E-12
  1.4380000E-02    1.1288980E-11
  1.4415000E-02    1.0990587E-12
  1.4450000E-02   -1.1534138E-11
  1.4485000E-02   -5.7735578E-12
  1.4520000E-02    9.8338369E-12
  1.4555000E-02    1.0030795E-11
  1.4590000E-02   -6.2677949E-12
  1.4625000E-02   -1.3069833E-11
  1.4660000E-02    1.2663371E-12
  1.4695000E-02    1.4258992E-11
  1.4730000E-02    4.4641049E-12
  1.4765000E-02   -1.3258793E-11
  1.4800000E-02   -1.0071246E-11
  1.4835000E-02    1.0082257E-11
  1.4870000E-02    1.4711971E-11
  1.4905000E-02   -5.0824882E-12
  1.4940000E-02   -1.7693040E-11
  1.4975000E-02   -1.1227108E-12
  1.5010000E-02    1.8570173E-11
  1.5045000E-02    7.7607027E-12
  1.5080000E-02   -1.7192584E-11
  1.5115000E-02   -1.4024715E-11
  1.5150000E-02    1.3687679E-11
  1.5185000E-02    1.9160677E-11
  1.5220000E-02   -8.4240297E-12
  1.5255000E-02   -2.2527121E-11
  1.5290000E-02    1.9836860E-12
  1.5325000E-02    2.3650720E-11
  1.5360000E-02    4.8831369E-12
  1.5395000E-02   -2.2293273E-11
  1.5430000E-02   -1.1335491E-11
  1.5465000E-02    1.8466850E-11
  1.5500000E-02    1.6518434E-11
  1.5535000E-02   -1.2436946E-11
  1.5570000E-02   -1.9585646E-11
  1.5605000E-02    4.7617752E-12
  1.5640000E-02    1.9783541E-11
  1.5675001E-02    3.6442628E-12
  1.5710000E-02   -1.6612127E-11
  1.5745001E-02   -1.1574982E-11
  1.5780000E-02    9.9834342E-12
  1.5814999E-02    1.7713763E-11
  1.5850000E-02   -3.1923593E-13
  1.5884999E-02   -2.0717775E-11
  1.5920000E-02   -1.1330660E-11
  1.5954999E-02    1.9544616E-11
  1.5990000E-02    2.3392432E-11
  1.6024999E-02   -1.3632624E-11
  1.6060000E-02   -3.3774525E-11
  1.6094999E-02    3.4940030E-12
  1.6130000E-02    4.0319872E-11
  1.6164999E-02    9.3000642E-12
  1.6200000E-02   -4.1705306E-11
  1.6235000E-02   -2.2605553E-11
  1.6270000E-02    3.7222028E-11
  1.6305000E-02    3.3522709E-11
  1.6340001E-02   -2.7470666E-11
  1.6375000E-02   -3.8903564E-11
  1.6410001E-02    1.5563658E-11
  1.6445000E-02    3.7666693E-11
  1.6480001E-02   -4.6325673E-12
  1.6515000E-02   -3.0425693E-11
  1.6550001E-02   -2.2873199E-12
  1.6585000E-02    1.9125248E-11
  1.6620001E-02    2.6890916E-12
  1.6655000E-02   -7.5599284E-12
  1.6690001E-02    3.9368730E-12
  1.6725000E-02   -1.4563302E-12
  1.6759999E-02   -1.5867363E-11
  1.6795000E-02    3.3421933E-12
  1.6829999E-02    2.8276471E-11
  1.6865000E-02    2.1818393E-12
  1.6899999E-02   -3.6365470E-11
  1.6935000E-02   -1.0188963E-11
  1.6969999E-02    3.7420008E-11
  1.7005000E-02    1.6487142E-11
  1.7039999E-02   -3.5227071E-11
  1.7075000E-02   -1.8647028E-11
  1.7109999E-02    3.0690388E-11
  1.7145000E-02    1.3989624E-11
  1.7180000E-02   -2.7127899E-11
  1.7215000E-02   -5.4378954E-12
  1.7250000E-02    2.6702933E-11
  1.7285001E-02   -5.8596986E-12
  1.7320000E-02   -3.1003380E-11
  1.7355001E-02    1.7974476E-11
  1.7390000E-02    4.0220653E-11
  1.7425001E-02   -3.3439508E-11
  1.7460000E-02   -7.1399192E-11
  1.7495001E-02    3.1941057E-11
  1.7530000E-02    1.0065714E-10
  1.7565001E-02   -2.0575592E-11
  1.7600000E-02   -1.1587830E-10
  1.7635001E-02    2.1192572E-11
  1.7670000E-02    1.3079199E-10
  1.7704999E-02   -2.2963558E-11
  1.7740000E-02   -1.5579955E-10
  1.7774999E-02    5.0867309E-12
  1.7810000E-02    1.7716449E-10
  1.7844999E-02    3.3524343E-11
  1.7880000E-02   -1.7650191E-10
  1.7914999E-02   -5.3856433E-11
  1.7950000E-02    1.7160844E-10
  1.7984999E-02    8.6251888E-11
  1.8020000E-02   -1.3194579E-10
  1.8054999E-02   -1.0809416E-10
  1.8090000E-02    9.3770505E-11
  1.8124999E-02    1.2144710E-10
  1.8160000E-02   -5.6716794E-11
  1.8195000E-02   -9.9899838E-11
  1.8230001E-02    2.5226266E-11
  1.8265000E-02    4.2364921E-11
  1.8300001E-02   -3.1504629E-11
  1.8335000E-02    3.2776551E-12
  1.8370001E-02   -2.9913873E-11
  1.8405000E-02   -1.8590560E-10
  1.8440001E-02   -3.0729155E-11
  1.8475000E-02    2.8770963E-10
  1.8510001E-02    1.3708137E-10
  1.8545000E-02   -2.5637753E-10
  1.8580001E-02   -9.3007289E-11
  1.8615000E-02    3.2011790E-10
  1.8650001E-02    4.1979697E-11
  1.8685000E-02   -4.1802917E-10
  1.8719999E-02   -9.5628769E-11
  1.8755000E-02    3.3844982E-10
  1.8789999E-02    1.8375182E-10
  1.8825000E-02   -1.6026551E-10
  1.8859999E-02   -2.7393654E-10
  1.8895000E-02   -9.0727890E-11
  1.8929999E-02    2.6698319E-10
  1.8965000E-02    9.8115099E-11
  1.8999999E-02   -3.8690978E-10
  1.9035000E-02   -1.2584168E-10
  1.9069999E-02    4.1228448E-10
  1.9105000E-02    2.1649127E-10
  1.9140000E-02   -2.7568572E-10
  1.9175000E-02   -2.4611399E-10
  1.9210000E-02    8.2245134E-11
  1.9245001E-02    1.7419316E-10
  1.9280000E-02    1.0544827E-10
  1.9315001E-02   -2.7075077E-11
  1.9350000E-02   -2.8836858E-10
  1.9385001E-02   -3.5766071E-10
  1.9420000E-02    1.1149715E-11
  1.9455001E-02    1.3272677E-10
  1.9490000E-02   -8.3706091E-11
  1.9525001E-02   -2.0179004E-10
  1.9560000E-02    1.0530787E-10
  1.9595001E-02    4.4553058E-10
  1.9630000E-02    6.4054290E-10
  1.9664999E-02    1.2421084E-12
  1.9700000E-02   -6.9245149E-10
  1.9734999E-02   -5.6870592E-11
  1.9770000E-02    4.1587656E-10
  1.9804999E-02   -5.0884208E-10
  1.9840000E-02   -4.3010498E-10
  1.9874999E-02    8.7312862E-10
  1.9910000E-02    3.6969008E-10
  1.9944999E-02   -8.1087503E-10
  1.9980000E-02    6.0769764E-11
  2.0014999E-02    6.2203165E-10
  2.0050000E-02   -4.1611101E-10
  2.0085000E-02   -2.0287520E-10
  2.0120000E-02    8.0772727E-10
  2.0155000E-02   -1.9959553E-10
  2.0190001E-02   -9.6270714E-10
  2.0225000E-02    2.5552524E-10
  2.0260001E-02    9.4857522E-10
  2.0295000E-02   -8.6489489E-11
  2.0330001E-02   -2.7172037E-11
  2.0365000E-02    6.8369138E-10
  2.0400001E-02   -6.5668265E-10
  2.0435000E-02   -1.4569608E-09
  2.0470001E-02   -6.1315716E-11
  2.0505000E-02    3.1458133E-10
  2.0540001E-02   -7.1587281E-10
  2.0575000E-02    5.6053096E-11
  2.0609999E-02    1.6767265E-09
  2.0645000E-02    1.0398472E-09
  2.0679999E-02   -6.3705530E-10
  2.0715000E-02   -1.0906277E-09
  2.0749999E-02   -8.3409185E-10
  2.0785000E-02   -7.0769189E-11
  2.0819999E-02    8.1455631E-10
  2.0855000E-02    4.1591178E-10
  2.0889999E-02   -1.0621867E-10
  2.0925000E-02    4.7975446E-10
  2.0959999E-02    7.7531426E-10
  2.0995000E-02   -8.5733681E-10
  2.1029999E-02   -1.5819809E-09
  2.1065000E-02    4.2869699E-10
  2.1100000E-02    1.5164949E-09
  2.1135001E-02    1.3108098E-10
  2.1170000E-02   -6.6661385E-11
  2.1205001E-02    1.0859968E-09
  2.1240000E-02    2.6974130E-11
  2.1275001E-02   -1.8212015E-09
  2.1310000E-02   -7.8898377E-10
  2.1345001E-02    1.1785620E-09
  2.1380000E-02    7.4195106E-10
  2.1415001E-02   -4.2401699E-10
  2.1450000E-02    7.9924255E-11
  2.1485001E-02    7.8192297E-10
  2.1520000E-02    1.9729600E-11
  2.1555001E-02   -1.1974545E-09
  2.1590000E-02   -1.1606632E-09
  2.1624999E-02    2.9102692E-10
  2.1660000E-02    1.0335144E-09
  2.1694999E-02   -7.5133955E-10
  2.1730000E-02   -2.2201663E-09
  2.1764999E-02    4.0702372E-11
  2.1800000E-02    2.5848426E-09
  2.1834999E-02    1.2098660E-09
  2.1870000E-02   -7.5923090E-10
  2.1904999E-02   -9.7675298E-11
  2.1940000E-02    5.8471117E-10
  2.1974999E-02   -5.9158428E-10
  2.2010000E-02   -1.2730755E-09
  2.2045000E-02   -3.2740383E-10
  2.2080000E-02    1.2400736E-09
  2.2115000E-02    1.3179774E-09
  2.2150001E-02    8.8330121E-11
  2.2185000E-02   -4.0196377E-10
  2.2220001E-02    4.0032749E-10
  2.2255000E-02   -2.8090190E-11
  2.2290001E-02   -1.6585523E-09
  2.2325000E-02   -1.6847873E-09
  2.2360001E-02   -4.1494910E-10
  2.2395000E-02    2.9924338E-10
  2.2430001E-02    6.9943673E-10
  2.2465000E-02    3.3177150E-10
  2.2500001E-02   -4.9348692E-10
  2.2535000E-02    2.5830493E-10
  2.2569999E-02    1.5506045E-09
  2.2605000E-02    1.3146426E-10
  2.2639999E-02   -1.7777585E-09
  2.2675000E-02   -5.7647070E-10
  2.2709999E-02    8.0404058E-11
  2.2745000E-02   -1.7110574E-09
  2.2779999E-02   -1.1677033E-09
  2.2815000E-02    6.9895595E-10
  2.2849999E-02    1.1532342E-12
  2.2885000E-02   -2.4873056E-10
  2.2919999E-02    1.6344649E-09
  2.2955000E-02    1.5560477E-09
  2.2990000E-02   -1.0089609E-09
  2.3025000E-02   -1.9903998E-09
  2.3060000E-02    1.5688090E-10
  2.3095001E-02    1.8186165E-09
  2.3130000E-02    2.0712879E-10
  2.3165001E-02   -1.8724695E-09
  2.3200000E-02   -6.0653155E-10
  2.3235001E-02    8.8891183E-10
  2.3270000E-02   -9.1725033E-10
  2.3305001E-02   -1.8837558E-09
  2.3340000E-02    3.5096029E-10
  2.3375001E-02    1.3696412E-09
  2.3410000E-02    5.8137534E-10
  2.3445001E-02    8.8976349E-10
  2.3480000E-02    8.6209473E-10
  2.3514999E-02   -7.5230794E-10
  2.3550000E-02   -9.9397202E-10
  2.3584999E-02    2.6623687E-10
  2.3620000E-02    8.2380797E-10
  2.3654999E-02    1.2995390E-09
  2.3690000E-02    1.7931030E-09
  2.3724999E-02   -2.3721686E-11
  2.3760000E-02   -2.3664142E-09
  2.3794999E-02   -1.1161232E-09
  2.3830000E-02    1.5042263E-09
  2.3864999E-02    6.3442634E-10
  2.3900000E-02   -1.3813960E-09
  2.3934999E-02    4.5851045E-10
  2.3970000E-02    2.2636817E-09
  2.4005000E-02   -1.2282745E-09
  2.4040001E-02   -3.6393111E-09
  2.4075000E-02    3.8055694E-11
  2.4110001E-02    2.2246749E-09
  2.4145000E-02   -3.0331787E-10
  2.4180001E-02   -1.0814972E-09
  2.4215000E-02    7.1016737E-10
  2.4250001E-02    7.7129719E-10
  2.4285000E-02   -1.2631680E-10
  2.4320001E-02    4.9190631E-11
  2.4355000E-02    9.7395902E-10
  2.4390001E-02    1.5510139E-09
  2.4425000E-02    2.0089387E-10
  2.4460001E-02   -1.5569954E-09
  2.4495000E-02   -8.1510082E-10
  2.4529999E-02    7.8870410E-10
  2.4565000E-02    9.0627555E-10
  2.4599999E-02    4.9965565E-10
  2.4635000E-02    1.0933732E-10
  2.4669999E-02   -2.5243849E-10
  2.4705000E-02   -8.0116108E-10
  2.4739999E-02   -1.5475607E-09
  2.4775000E-02    1.1765423E-11
  2.4809999E-02    2.1175330E-09
  2.4845000E-02   -3.6863571E-10
  2.4879999E-02   -1.9197512E-09
  2.4915000E-02    2.0985376E-09
  2.4950000E-02    1.9516593E-09
  2.4985000E-02   -2.8177429E-09
  2.5020000E-02   -4.6627474E-10
  2.5055001E-02    3.8228762E-09
  2.5090000E-02    8.9865684E-11
  2.5125001E-02   -2.3065410E-09
  2.5160000E-02    1.5705748E-09
  2.5195001E-02    2.1213140E-09
  2.5230000E-02   -3.5906353E-10
  2.5265001E-02    6.3554617E-10
  2.5300000E-02    1.0205750E-09
  2.5335001E-02   -1.7103763E-09
  2.5370000E-02   -1.6228632E-09
  2.5405001E-02    1.3931708E-09
  2.5440000E-02    1.1403055E-09
  2.5474999E-02   -2.0809294E-09
  2.5510000E-02   -2.1167912E-09
  2.5544999E-02    8.0839513E-10
  2.5580000E-02    5.1892363E-10
  2.5614999E-02   -1.3024770E-09
  2.5650000E-02    1.4151860E-09
  2.5684999E-02    4.1583657E-09
  2.5720000E-02    4.4958889E-10
  2.5754999E-02   -4.0704027E-09
  2.5790000E-02   -2.8321070E-09
  2.5824999E-02    3.9179611E-11
  2.5860000E-02    1.6899811E-10
  2.5895000E-02   -1.2185743E-10
  2.5930000E-02    1.0451878E-09
  2.5965000E-02    1.3773845E-09
  2.6000001E-02   -3.2555900E-10
  2.6035000E-02   -1.6208417E-09
  2.6070001E-02   -1.4158089E-09
  2.6105000E-02   -9.6737474E-10
  2.6140001E-02    1.7450182E-10
  2.6175000E-02    1.9879407E-09
  2.6210001E-02    1.4980188E-09
  2.6245000E-02   -1.3308717E-09
  2.6280001E-02   -2.7533629E-09
  2.6315000E-02   -1.8016357E-09
  2.6350001E-02    1.1364285E-10
  2.6385000E-02    1.8584082E-09
  2.6419999E-02    1.1337618E-09
  2.6455000E-02   -1.7391354E-09
  2.6489999E-02   -2.0706852E-09
  2.6525000E-02   -1.7067818E-11
  2.6559999E-02   -5.7904431E-10
  2.6595000E-02   -1.7673261E-09
  2.6629999E-02    1.5010608E-09
  2.6665000E-02    3.9091903E-09
  2.6699999E-02   -4.9456628E-10
  2.6735000E-02   -4.2120432E-09
  2.6769999E-02   -8.8221797E-10
  2.6805000E-02    2.0947906E-09
  2.6839999E-02    2.7476804E-10
  2.6875000E-02   -6.9167955E-10
  2.6910000E-02    1.5968267E-10
  2.6945001E-02   -8.9730595E-10
  2.6980000E-02   -2.4804334E-09