 -4.8000002E-03    1.0000000E-24
 -4.7650002E-03    1.0000000E-24
 -4.7300002E-03    1.0000001E-24
 -4.6950001E-03    1.0000002E-24
 -4.6600001E-03    1.0000001E-24
 -4.6250001E-03    1.0000001E-24
 -4.5900000E-03    1.0000001E-24
 -4.5550000E-03    1.0000001E-24
 -4.5200000E-03    1.0000001E-24
 -4.4849999E-03    1.0000002E-24
 -4.4499999E-03    1.0000001E-24
 -4.4149999E-03    1.0000002E-24
 -4.3799998E-03    1.0000003E-24
 -4.3449998E-03    1.0000001E-24
 -4.3100002E-03    1.0000000E-24
 -4.2750002E-03    1.0000001E-24
 -4.2400002E-03    1.0000001E-24
 -4.2050001E-03    9.9999982E-25
 -4.1700001E-03    1.0000000E-24
 -4.1350001E-03    1.0000002E-24
 -4.1000000E-03    1.0000003E-24
 -4.0650000E-03    9.9999992E-25
 -4.0300000E-03    9.9999972E-25
 -3.9949999E-03    9.9999992E-25
 -3.9599999E-03    1.0000002E-24
 -3.9249999E-03    1.0000005E-24
 -3.8900001E-03    1.0000002E-24
 -3.8550000E-03    1.0000000E-24
 -3.8200000E-03    1.0000000E-24
 -3.7849999E-03    1.0000001E-24
 -3.7499999E-03    1.0000004E-24
 -3.7150001E-03    1.0000004E-24
 -3.6800001E-03    1.0000000E-24
 -3.6450000E-03    9.9999972E-25
 -3.6100000E-03    1.0000000E-24
 -3.5750000E-03    1.0000000E-24
 -3.5399999E-03    9.9999982E-25
 -3.5049999E-03    1.0000002E-24
 -3.4700001E-03    1.0000005E-24
 -3.4350001E-03    1.0000002E-24
 -3.4000000E-03    9.9999992E-25
 -3.3650000E-03    1.0000002E-24
 -3.3300000E-03    1.0000001E-24
 -3.2949999E-03    9.9999972E-25
 -3.2599999E-03    9.9999963E-25
 -3.2250001E-03    1.0000002E-24
 -3.1900001E-03    1.0000004E-24
 -3.1550000E-03    1.0000002E-24
 -3.1200000E-03    1.0000001E-24
 -3.0850000E-03    9.9999992E-25
 -3.0499999E-03    1.0000000E-24
 -3.0149999E-03    1.0000003E-24
 -2.9800001E-03    1.0000002E-24
 -2.9450001E-03    1.0000001E-24
 -2.9100000E-03    1.0000000E-24
 -2.8750000E-03    1.0000000E-24
 -2.8400000E-03    1.0000000E-24
 -2.8049999E-03    1.0000001E-24
 -2.7699999E-03    1.0000003E-24
 -2.7350001E-03    1.0000003E-24
 -2.7000001E-03    9.9999992E-25
 -2.6650000E-03    9.9999963E-25
 -2.6300000E-03    1.0000000E-24
 -2.5950000E-03    1.0000009E-24
 -2.5599999E-03    1.0000010E-24
 -2.5249999E-03    1.0000003E-24
 -2.4900001E-03    9.9999963E-25
 -2.4550001E-03    9.9999992E-25
 -2.4200000E-03    1.0000003E-24
 -2.3850000E-03    1.0000003E-24
 -2.3500000E-03    1.0000002E-24
 -2.3149999E-03    9.9999972E-25
 -2.2799999E-03    9.9999943E-25
 -2.2450001E-03    9.9999982E-25
 -2.2100001E-03    1.0000005E-24
 -2.1750000E-03    1.0000002E-24
 -2.1400000E-03    9.9999982E-25
 -2.1050000E-03    1.0000002E-24
 -2.0699999E-03    1.0000010E-24
 -2.0349999E-03    1.0000008E-24
 -2.0000001E-03    1.0000002E-24
 -1.9650001E-03    1.0000000E-24
 -1.9300000E-03    9.9999992E-25
 -1.8950000E-03    9.9999953E-25
 -1.8600000E-03    9.9999982E-25
 -1.8250000E-03    1.0000004E-24
 -1.7900000E-03    1.0000005E-24
 -1.7550000E-03    9.9999992E-25
 -1.7199999E-03    9.9999972E-25
 -1.6850000E-03    1.0000000E-24
 -1.6500000E-03    1.0000006E-24
 -1.6150000E-03    1.0000003E-24
 -1.5800000E-03    9.9999953E-25
 -1.5450000E-03    9.9999992E-25
 -1.5100000E-03    1.0000008E-24
 -1.4750001E-03    1.0000005E-24
 -1.4400000E-03    9.9999972E-25
 -1.4050000E-03    9.9999943E-25
 -1.3700000E-03    9.9999972E-25
 -1.3350000E-03    1.0000004E-24
 -1.3000000E-03    1.0000006E-24
 -1.2650000E-03    9.9999992E-25
 -1.2300001E-03    9.9999972E-25
 -1.1950000E-03    1.0000001E-24
 -1.1600000E-03    1.0000006E-24
 -1.1250000E-03    1.0000001E-24
 -1.0900000E-03    9.9999953E-25
 -1.0550000E-03    9.9999963E-25
 -1.0200000E-03    1.0000005E-24
 -9.8500005E-04    1.0000006E-24
 -9.5000002E-04    9.9999992E-25
 -9.1499998E-04    1.0000003E-24
 -8.8000001E-04    1.0000010E-24
 -8.4499997E-04    1.0000004E-24
 -8.1000000E-04    9.9999963E-25
 -7.7500002E-04    9.9999982E-25
 -7.3999999E-04    1.0000000E-24
 -7.0500001E-04    9.9999992E-25
 -6.6999998E-04    9.9999992E-25
 -6.3500000E-04    1.0000003E-24
 -6.0000003E-04    1.0000006E-24
 -5.6499999E-04    9.9999992E-25
 -5.3000002E-04    9.9999923E-25
 -4.9499999E-04    9.9999992E-25
 -4.6000001E-04    1.0000007E-24
 -4.2500001E-04    1.0000004E-24
 -3.9000000E-04    9.9999982E-25
 -3.5500000E-04    9.9999963E-25
 -3.1999999E-04    9.9999953E-25
 -2.8499999E-04    9.9999982E-25
 -2.5000001E-04    1.0000007E-24
 -2.1499999E-04    1.0000011E-24
 -1.8000000E-04    1.0000006E-24
 -1.4500000E-04    1.0000002E-24
 -1.1000000E-04    1.0000000E-24
 -7.5000004E-05    9.9999982E-25
 -3.9999999E-05    9.9999992E-25
 -4.9999999E-06    1.0000006E-24
  2.9999999E-05    1.0000008E-24
  6.5000000E-05    1.0000003E-24
  9.9999997E-05    9.9999982E-25
  1.3499999E-04    9.9999972E-25
  1.7000000E-04    1.0000001E-24
  2.0500000E-04    1.0000003E-24
  2.3999999E-04    1.0000004E-24
  2.7500000E-04    1.0000002E-24
  3.1000000E-04    9.9999933E-25
  3.4500001E-04    9.9999903E-25
  3.8000001E-04    1.0000000E-24
  4.1499999E-04    1.0000009E-24
  4.4999999E-04    1.0000005E-24
  4.8500000E-04    9.9999972E-25
  5.2000000E-04    9.9999933E-25
  5.5499998E-04    9.9999963E-25
  5.9000001E-04    1.0000003E-24
  6.2499999E-04    1.0000005E-24
  6.6000002E-04    9.9999992E-25
  6.9500000E-04    9.9999982E-25
  7.3000003E-04    1.0000002E-24
  7.6500000E-04    1.0000004E-24
  7.9999998E-04    1.0000002E-24
  8.3500001E-04    9.9999972E-25
  8.6999999E-04    9.9999982E-25
  9.0500002E-04    1.0000004E-24
  9.4000000E-04    1.0000005E-24
  9.7499997E-04    9.9999982E-25
  1.0100000E-03    9.9999982E-25
  1.0450000E-03    1.0000005E-24
  1.0800000E-03    1.0000010E-24
  1.1150000E-03    1.0000004E-24
  1.1500000E-03    9.9999923E-25
  1.1849999E-03    9.9999982E-25
  1.2200000E-03    1.0000022E-24
  1.2550000E-03    1.0000007E-24
  1.2900000E-03    9.9999509E-25
  1.3250000E-03    9.9999785E-25
  1.3600000E-03    1.0000114E-24
  1.3950000E-03    1.0000067E-24
  1.4299999E-03    9.9997675E-25
  1.4650000E-03    9.9998464E-25
  1.5000000E-03    1.0000489E-24
  1.5350000E-03    1.0000345E-24
  1.5700000E-03    9.9989559E-25
  1.6050000E-03    9.9992182E-25
  1.6400000E-03    1.0002202E-24
  1.6749999E-03    1.0001785E-24
  1.7100000E-03    9.9954800E-25
  1.7450000E-03    9.9959859E-25
  1.7800000E-03    1.0009068E-24
  1.8150000E-03    1.0008928E-24
  1.8500000E-03    9.9822863E-25
  1.8850000E-03    9.9803980E-25
  1.9200000E-03    1.0033667E-24
  1.9550000E-03    1.0042526E-24
  1.9900000E-03    9.9379257E-25
  2.0250001E-03    9.9090219E-25
  2.0600001E-03    1.0110608E-24
  2.0949999E-03    1.0191532E-24
  2.1299999E-03    9.8107564E-25
  2.1650000E-03    9.6041547E-25
  2.2000000E-03    1.0307655E-24
  2.2350000E-03    1.0801791E-24
  2.2700001E-03    9.5342015E-25
  2.3050001E-03    8.4106289E-25
  2.3399999E-03    1.0629046E-24
  2.3749999E-03    1.3079516E-24
  2.4100000E-03    9.3299723E-25
  2.4450000E-03    4.1751094E-25
  2.4800000E-03    1.0244120E-24
  2.5150001E-03    2.0740579E-24
  2.5500001E-03    1.1461644E-24
  2.5849999E-03   -9.2709951E-25
  2.6199999E-03    3.7918983E-25
  2.6550000E-03    4.3559010E-24
  2.6900000E-03    2.7577031E-24
  2.7250000E-03   -4.6511503E-24
  2.7600001E-03   -3.2487619E-24
  2.7950001E-03    1.0150979E-23
  2.8299999E-03    1.0370448E-23
  2.8649999E-03   -1.3123836E-23
  2.9000000E-03   -1.8376384E-23
  2.9350000E-03    2.1462412E-23
  2.9700000E-03    3.9072375E-23
  3.0050001E-03   -2.6008916E-23
  3.0400001E-03   -7.0585494E-23
  3.0749999E-03    3.1211714E-23
  3.1099999E-03    1.3025248E-22
  3.1450000E-03   -2.0645187E-23
  3.1800000E-03   -2.2335689E-22
  3.2150000E-03   -1.5283713E-23
  3.2500001E-03    3.7505684E-22
  3.2850001E-03    1.1832501E-22
  3.3199999E-03   -5.9615397E-22
  3.3549999E-03   -3.4104984E-22
  3.3900000E-03    9.0821240E-22
  3.4250000E-03    7.9393016E-22
  3.4600000E-03   -1.2958055E-21
  3.4950001E-03   -1.6325946E-21
  3.5300001E-03    1.7072703E-21
  3.5649999E-03    3.1106333E-21
  3.5999999E-03   -1.9664131E-21
  3.6350000E-03   -5.5625360E-21
  3.6700000E-03    1.7107377E-21
  3.7050000E-03    9.4288614E-21
  3.7400001E-03   -2.1430205E-22
  3.7750001E-03   -1.5165993E-20
  3.8099999E-03   -3.7878951E-21
  3.8449999E-03    2.3118701E-20
  3.8800000E-03    1.2401577E-20
  3.9149998E-03   -3.3150950E-20
  3.9499998E-03   -2.8844735E-20
  3.9849998E-03    4.4055814E-20
  4.0199999E-03    5.7735611E-20
  4.0549999E-03   -5.2482603E-20
  4.0899999E-03   -1.0509640E-19
  4.1250000E-03    5.1369338E-20
  4.1600000E-03    1.7788842E-19
  4.1950000E-03   -2.7655908E-20
  4.2300001E-03   -2.8244524E-19
  4.2650001E-03   -4.0551534E-20
  4.3000001E-03    4.2119055E-19
  4.3350002E-03    1.8715394E-19
  4.3700002E-03   -5.8653583E-19
  4.4049998E-03   -4.6057277E-19
  4.4399998E-03    7.5096362E-19
  4.4749998E-03    9.2402165E-19
  4.5099999E-03   -8.5216095E-19
  4.5449999E-03   -1.6505101E-18
  4.5799999E-03    7.7295287E-19
  4.6150000E-03    2.7083231E-18
  4.6500000E-03   -3.1703478E-19
  4.6850001E-03   -4.1308875E-18
  4.7200001E-03   -8.1544809E-19
  4.7550001E-03    5.8640170E-18
  4.7900002E-03    3.0441607E-18
  4.8250002E-03   -7.6833904E-18
  4.8600002E-03   -6.9017010E-18
  4.8949998E-03    9.0780508E-18
  4.9299998E-03    1.2980714E-17
  4.9649999E-03   -9.1025974E-18
  4.9999999E-03   -2.1803154E-17
  5.0349999E-03    6.2145918E-18
  5.0700000E-03    3.3573306E-17
  5.1050000E-03    1.8645848E-18
  5.1400000E-03   -4.7774994E-17
  5.1750001E-03   -1.8195651E-17
  5.2100001E-03    6.2585160E-17
  5.2450001E-03    4.6465399E-17
  5.2800002E-03   -7.4107760E-17
  5.3150002E-03   -9.0478021E-17
  5.3500002E-03    7.5493704E-17
  5.3849998E-03    1.5311077E-16
  5.4199998E-03   -5.6110685E-17
  5.4549999E-03   -2.3454557E-16
  5.4899999E-03    1.0645753E-18
  5.5249999E-03    3.2963730E-16
  5.5600000E-03    1.0845593E-16
  5.5950000E-03   -4.2441735E-16
  5.6300000E-03   -2.9336584E-16
  5.6650001E-03    4.9198913E-16
  5.7000001E-03    5.7262291E-16
  5.7350001E-03   -4.8847940E-16
  5.7700002E-03   -9.5612867E-16
  5.8050002E-03    3.5026387E-16
  5.8400002E-03    1.4340173E-15
  5.8749998E-03    5.6559748E-18
  5.9099998E-03   -1.9623113E-15
  5.9449999E-03   -6.7559438E-16
  5.9799999E-03    2.4459468E-15
  6.0149999E-03    1.7544562E-15
  6.0500000E-03   -2.7217106E-15
  6.0850000E-03   -3.3093944E-15
  6.1200000E-03    2.5456768E-15
  6.1550001E-03    5.3397965E-15
  6.1900001E-03   -1.5920502E-15
  6.2250001E-03   -7.7236691E-15
  6.2600002E-03   -5.2746695E-16
  6.2950002E-03    1.0154244E-14
  6.3299998E-03    4.2133536E-15
  6.3649998E-03   -1.2076061E-14
  6.3999998E-03   -9.7871218E-15
  6.4349999E-03    1.2636634E-14
  6.4699999E-03    1.7352906E-14
  6.5049999E-03   -1.0677336E-14
  6.5400000E-03   -2.6613128E-14
  6.5750000E-03    4.7936792E-15
  6.6100000E-03    3.6652156E-14
  6.6450001E-03    6.5016466E-15
  6.6800001E-03   -4.5719596E-14
  6.7150001E-03   -2.4482510E-14
  6.7500002E-03    5.1066431E-14
  6.7850002E-03    4.9762837E-14
  6.8199998E-03   -4.8909404E-14
  6.8549998E-03   -8.1708335E-14
  6.8899998E-03    3.4616336E-14
  6.9249999E-03    1.1775539E-13
  6.9599999E-03   -3.2112021E-15
  6.9949999E-03   -1.5273933E-13
  7.0300000E-03   -4.9717236E-14
  7.0650000E-03    1.7839614E-13
  7.1000000E-03    1.2666321E-13
  7.1350001E-03   -1.8326261E-13
  7.1700001E-03   -2.2644869E-13
  7.2050001E-03    1.5324277E-13
  7.2400002E-03    3.4222747E-13
  7.2750002E-03   -7.3113018E-14
  7.3099998E-03   -4.5956408E-13
  7.3449998E-03   -7.0822810E-14
  7.3799998E-03    5.5507058E-13
  7.4149999E-03    2.8685943E-13
  7.4499999E-03   -5.9623243E-13
  7.4850000E-03   -5.7297114E-13
  7.5200000E-03    5.4314349E-13
  7.5550000E-03    9.1135422E-13
  7.5900001E-03   -3.5284265E-13
  7.6250001E-03   -1.2633526E-12
  7.6600001E-03   -1.3259610E-14
  7.6950002E-03    1.5661205E-12
  7.7300002E-03    5.7882394E-13
  7.7650002E-03   -1.7327241E-12
  7.7999998E-03   -1.3395574E-12
  7.8349998E-03    1.6575064E-12
  7.8699999E-03    2.2493056E-12
  7.9049999E-03   -1.2282959E-12
  7.9399999E-03   -3.2078537E-12
  7.9750000E-03    3.4633811E-13
  8.0100000E-03    4.0539933E-12
  8.0450000E-03    1.0464375E-12
  8.0800001E-03   -4.5680981E-12
  8.1150001E-03   -2.9350812E-12
  8.1500001E-03    4.4884660E-12
  8.1850002E-03    5.1988227E-12
  8.2200002E-03   -3.5447207E-12
  8.2550002E-03   -7.5849119E-12
  8.2900003E-03    1.5091445E-12
  8.3250003E-03    9.6980956E-12
  8.3600003E-03    1.7368537E-12
  8.3950004E-03   -1.1015376E-11
  8.4300004E-03   -6.1286883E-12
  8.4650004E-03    1.0934408E-11
  8.5000005E-03    1.1349491E-11
  8.5349996E-03   -8.8604410E-12
  8.5699996E-03   -1.6783316E-11
  8.6049996E-03    4.3302454E-12
  8.6399997E-03    2.1511163E-11
  8.6749997E-03    2.8380026E-12
  8.7099997E-03   -2.4369623E-11
  8.7449998E-03   -1.2391133E-11
  8.7799998E-03    2.4085829E-11
  8.8149998E-03    2.3516513E-11
  8.8499999E-03   -1.9489835E-11
  8.8849999E-03   -3.4785615E-11
  8.9199999E-03    9.7884548E-12
  8.9550000E-03    4.4204012E-11
  8.9900000E-03    5.1344627E-12
  9.0250000E-03   -4.9397948E-11
  9.0600001E-03   -2.4445838E-11
  9.0950001E-03    4.7949554E-11
  9.1300001E-03    4.6189830E-11
  9.1650002E-03   -3.7862997E-11
  9.2000002E-03   -6.7288501E-11
  9.2350002E-03    1.8104927E-11
  9.2700003E-03    8.3778789E-11
  9.3050003E-03    1.0876615E-11
  9.3400003E-03   -9.1311396E-11
  9.3750004E-03   -4.6775608E-11
  9.4100004E-03    8.5883897E-11
  9.4450004E-03    8.5316983E-11
  9.4799995E-03   -6.4723837E-11
  9.5149996E-03   -1.2051295E-10
  9.5499996E-03    2.7181224E-11
  9.5849996E-03    1.4534328E-10
  9.6199997E-03    2.4556088E-11
  9.6549997E-03   -1.5284177E-10
  9.6899997E-03   -8.5135364E-11
  9.7249998E-03    1.3746501E-10
  9.7599998E-03    1.4628257E-10
  9.7949998E-03   -9.6513401E-11
  9.8299999E-03   -1.9770785E-10
  9.8649999E-03    3.1300351E-11
  9.8999999E-03    2.2862130E-10
  9.9350000E-03    5.2228288E-11
  9.9700000E-03   -2.2966874E-10
  1.0005000E-02   -1.4366167E-10
  1.0040000E-02    1.9498116E-10
  1.0075000E-02    2.2920214E-10
  1.0110000E-02   -1.2395066E-10
  1.0145000E-02   -2.9363242E-10
  1.0180000E-02    2.2299154E-11
  1.0215000E-02    3.2294156E-10
  1.0250000E-02    9.7942363E-11
  1.0285000E-02   -3.0715616E-10
  1.0320000E-02   -2.1973605E-10
  1.0355000E-02    2.4277855E-10
  1.0390000E-02    3.2351286E-10
  1.0425000E-02   -1.3426668E-10
  1.0460000E-02   -3.9043246E-10
  1.0495000E-02   -5.8302816E-12
  1.0530000E-02    4.0587086E-10
  1.0565000E-02    1.5823171E-10
  1.0600000E-02   -3.6251402E-10
  1.0635000E-02   -2.9969960E-10
  1.0670000E-02    2.6242419E-10
  1.0705000E-02    4.0688752E-10
  1.0740000E-02   -1.1750673E-10
  1.0775000E-02   -4.6059778E-10
  1.0810000E-02   -5.1926494E-11
  1.0845000E-02    4.4954851E-10
  1.0880000E-02    2.2033583E-10
  1.0915000E-02   -3.7279968E-10
  1.0950000E-02   -3.6124770E-10
  1.0985000E-02    2.4033964E-10
  1.1020000E-02    4.5183421E-10
  1.1055000E-02   -7.1751528E-11
  1.1090000E-02   -4.7699517E-10
  1.1125000E-02   -1.0683797E-10
  1.1160000E-02    4.3227141E-10
  1.1195000E-02    2.6713287E-10
  1.1230000E-02   -3.2497860E-10
  1.1265000E-02   -3.8368780E-10
  1.1300000E-02    1.7314190E-10
  1.1335000E-02    4.3857126E-10
  1.1370000E-02   -2.3035601E-12
  1.1405000E-02   -4.2461348E-10
  1.1440000E-02   -1.5910566E-10
  1.1475000E-02    3.4658687E-10
  1.1510000E-02    2.8482425E-10
  1.1545000E-02   -2.2025404E-10
  1.1580000E-02   -3.5537293E-10
  1.1615000E-02    6.9549325E-11
  1.1650000E-02    3.6157621E-10
  1.1685000E-02    7.7759382E-11
  1.1720000E-02   -3.0637531E-10
  1.1755000E-02   -1.9539478E-10
  1.1790000E-02    2.0430607E-10
  1.1825000E-02    2.6387001E-10
  1.1860000E-02   -7.8442378E-11
  1.1895000E-02   -2.7446090E-10
  1.1930000E-02   -4.4631712E-11
  1.1965000E-02    2.3080150E-10
  1.2000000E-02    1.4064475E-10
  1.2035000E-02   -1.4771577E-10
  1.2070000E-02   -1.9295249E-10
  1.2105000E-02    4.7494328E-11
  1.2140000E-02    1.9615916E-10
  1.2175000E-02    4.5717777E-11
  1.2210000E-02   -1.5701179E-10
  1.2245000E-02   -1.1218584E-10
  1.2280000E-02    9.1987550E-11
  1.2315000E-02    1.4172001E-10
  1.2350000E-02   -2.1978886E-11
  1.2385000E-02   -1.3591767E-10
  1.2420000E-02   -3.4350574E-11
  1.2455000E-02    1.0664451E-10
  1.2490000E-02    6.6372380E-11
  1.2525000E-02   -7.1193593E-11
  1.2560000E-02   -7.4570405E-11
  1.2595000E-02    4.5607591E-11
  1.2630000E-02    6.9809269E-11
  1.2665000E-02   -3.8219747E-11
  1.2700000E-02   -6.8732818E-11
  1.2735000E-02    4.5616486E-11
  1.2770000E-02    8.6367996E-11
  1.2805000E-02   -5.2923492E-11
  1.2840000E-02   -1.2824738E-10
  1.2875000E-02    3.9323277E-11
  1.2910000E-02    1.8554963E-10
  1.2945000E-02    1.2712321E-11
  1.2980000E-02   -2.3619895E-10
  1.3015000E-02   -1.0861499E-10
  1.3050000E-02    2.5153291E-10
  1.3085000E-02    2.3686761E-10
  1.3120000E-02   -2.0575025E-10
  1.3155000E-02   -3.6911552E-10
  1.3190000E-02    8.5808728E-11
  1.3225000E-02    4.6556081E-10
  1.3260000E-02    1.0069252E-10
  1.3295000E-02   -4.8501608E-10
  1.3330000E-02   -3.2181738E-10
  1.3365000E-02    3.9867715E-10
  1.3400000E-02    5.2470961E-10
  1.3435000E-02   -2.0507249E-10
  1.3470000E-02   -6.5040523E-10
  1.3505000E-02   -6.3914617E-11
  1.3540000E-02    6.5327099E-10
  1.3575000E-02    3.4900158E-10
  1.3610000E-02   -5.1656779E-10
  1.3645000E-02   -5.7631799E-10
  1.3680000E-02    2.6547531E-10
  1.3715000E-02    6.8384731E-10
  1.3750000E-02    4.0241029E-11
  1.3785000E-02   -6.4055550E-10
  1.3820000E-02   -3.2397285E-10
  1.3855000E-02    4.5155135E-10
  1.3890000E-02    5.0172005E-10
  1.3925000E-02   -1.7807249E-10
  1.3960000E-02   -5.2992261E-10
  1.3995000E-02   -9.8277463E-11
  1.4030000E-02    4.0868248E-10
  1.4065000E-02    2.9844757E-10
  1.4100000E-02   -1.7046949E-10
  1.4135000E-02   -3.3517628E-10
  1.4170000E-02   -6.0719124E-11
  1.4205000E-02    2.4554836E-10
  1.4240000E-02    2.4091265E-10
  1.4275000E-02   -3.4756933E-11
  1.4310000E-02   -2.8068151E-10
  1.4345000E-02   -2.1060040E-10
  1.4380000E-02    1.3627709E-10
  1.4415000E-02    3.1943015E-10
  1.4450000E-02   -1.0342202E-13
  1.4485000E-02   -4.7168097E-10
  1.4520000E-02   -4.1111034E-10
  1.4555000E-02    1.3994442E-10
  1.4590000E-02    3.0358180E-10
  1.4625000E-02   -3.3332631E-10
  1.4660000E-02   -9.4979014E-10
  1.4695000E-02   -6.8934353E-10
  1.4730000E-02   -9.2158517E-11
  1.4765000E-02   -3.5169745E-10
  1.4800000E-02   -1.4073586E-09
  1.4835000E-02   -1.9739188E-09
  1.4870000E-02   -1.5979907E-09
  1.4905000E-02   -1.4354756E-09
  1.4940000E-02   -2.4245423E-09
  1.4975000E-02   -3.8029349E-09
  1.5010000E-02   -4.3805315E-09
  1.5045000E-02   -4.4663220E-09
  1.5080000E-02   -5.3478875E-09
  1.5115000E-02   -7.2825492E-09
  1.5150000E-02   -9.2560208E-09
  1.5185000E-02   -1.0714499E-08
  1.5220000E-02   -1.2398687E-08
  1.5255000E-02   -1.5154678E-08
  1.5290000E-02   -1.8810574E-08
  1.5325000E-02   -2.2724123E-08
  1.5360000E-02   -2.6853257E-08
  1.5395000E-02   -3.1768920E-08
  1.5430000E-02   -3.7935070E-08
  1.5465000E-02   -4.5393225E-08
  1.5500000E-02   -5.4003454E-08
  1.5535000E-02   -6.3752672E-08
  1.5570000E-02   -7.4955061E-08
  1.5605000E-02   -8.8255206E-08
  1.5640000E-02   -1.0422808E-07
  1.5675001E-02   -1.2292637E-07
  1.5710000E-02   -1.4417149E-07
  1.5745001E-02   -1.6842787E-07
  1.5780000E-02   -1.9693816E-07
  1.5814999E-02   -2.3066541E-07
  1.5850000E-02   -2.6957264E-07
  1.5884999E-02   -3.1356257E-07
  1.5920000E-02   -3.6381266E-07
  1.5954999E-02   -4.2231915E-07
  1.5990000E-02   -4.9017052E-07
  1.6024999E-02   -5.6734780E-07
  1.6060000E-02   -6.5462672E-07
  1.6094999E-02   -7.5459445E-07
  1.6130000E-02   -8.6994334E-07
  1.6164999E-02   -1.0017309E-06
  1.6200000E-02   -1.1506571E-06
  1.6235000E-02   -1.3194408E-06
  1.6270000E-02   -1.5122686E-06
  1.6305000E-02   -1.7320743E-06
  1.6340001E-02   -1.9802608E-06
  1.6375000E-02   -2.2595350E-06
  1.6410001E-02   -2.5751933E-06
  1.6445000E-02   -2.9326709E-06
  1.6480001E-02   -3.3354761E-06
  1.6515000E-02   -3.7870323E-06
  1.6550001E-02   -4.2934225E-06
  1.6585000E-02   -4.8626371E-06
  1.6620001E-02   -5.5017372E-06
  1.6655000E-02   -6.2165959E-06
  1.6690001E-02   -7.0144520E-06
  1.6725000E-02   -7.9052288E-06
  1.6759999E-02   -8.8998695E-06
  1.6795000E-02   -1.0008464E-05
  1.6829999E-02   -1.1240901E-05
  1.6865000E-02   -1.2608917E-05
  1.6899999E-02   -1.4126712E-05
  1.6935000E-02   -1.5809506E-05
  1.6969999E-02   -1.7672199E-05
  1.7005000E-02   -1.9730109E-05
  1.7039999E-02   -2.2000835E-05
  1.7075000E-02   -2.4504718E-05
  1.7109999E-02   -2.7263295E-05
  1.7145000E-02   -3.0298152E-05
  1.7180000E-02   -3.3631946E-05
  1.7215000E-02   -3.7290058E-05
  1.7250000E-02   -4.1300456E-05
  1.7285001E-02   -4.5692213E-05
  1.7320000E-02   -5.0495037E-05
  1.7355001E-02   -5.5740275E-05
  1.7390000E-02   -6.1461891E-05
  1.7425001E-02   -6.7696419E-05
  1.7460000E-02   -7.4482094E-05
  1.7495001E-02   -8.1858278E-05
  1.7530000E-02   -8.9865927E-05
  1.7565001E-02   -9.8549041E-05
  1.7600000E-02   -1.0795503E-04
  1.7635001E-02   -1.1813312E-04
  1.7670000E-02   -1.2913284E-04
  1.7704999E-02   -1.4100547E-04
  1.7740000E-02   -1.5380625E-04
  1.7774999E-02   -1.6759377E-04
  1.7810000E-02   -1.8242677E-04
  1.7844999E-02   -1.9836350E-04
  1.7880000E-02   -2.1546491E-04
  1.7914999E-02   -2.3379634E-04
  1.7950000E-02   -2.5342469E-04
  1.7984999E-02   -2.7441580E-04
  1.8020000E-02   -2.9683561E-04
  1.8054999E-02   -3.2075346E-04
  1.8090000E-02   -3.4624132E-04
  1.8124999E-02   -3.7337109E-04
  1.8160000E-02   -4.0221328E-04
  1.8195000E-02   -4.3283837E-04
  1.8230001E-02   -4.6531833E-04
  1.8265000E-02   -4.9972552E-04
  1.8300001E-02   -5.3613068E-04
  1.8335000E-02   -5.7460216E-04
  1.8370001E-02   -6.1520631E-04
  1.8405000E-02   -6.5800868E-04
  1.8440001E-02   -7.0307299E-04
  1.8475000E-02   -7.5045979E-04
  1.8510001E-02   -8.0022466E-04
  1.8545000E-02   -8.5241935E-04
  1.8580001E-02   -9.0709305E-04
  1.8615000E-02   -9.6429011E-04
  1.8650001E-02   -1.0240485E-03
  1.8685000E-02   -1.0864000E-03
  1.8719999E-02   -1.1513693E-03
  1.8755000E-02   -1.2189741E-03
  1.8789999E-02   -1.2892244E-03
  1.8825000E-02   -1.3621217E-03
  1.8859999E-02   -1.4376582E-03
  1.8895000E-02   -1.5158145E-03
  1.8929999E-02   -1.5965605E-03
  1.8965000E-02   -1.6798567E-03
  1.8999999E-02   -1.7656524E-03
  1.9035000E-02   -1.8538838E-03
  1.9069999E-02   -1.9444716E-03
  1.9105000E-02   -2.0373233E-03
  1.9140000E-02   -2.1323350E-03
  1.9175000E-02   -2.2293893E-03
  1.9210000E-02   -2.3283500E-03
  1.9245001E-02   -2.4290653E-03
  1.9280000E-02   -2.5313676E-03
  1.9315001E-02   -2.6350748E-03
  1.9350000E-02   -2.7399904E-03
  1.9385001E-02   -2.8458976E-03
  1.9420000E-02   -2.9525599E-03
  1.9455001E-02   -3.0597257E-03
  1.9490000E-02   -3.1671326E-03
  1.9525001E-02   -3.2744983E-03
  1.9560000E-02   -3.3815189E-03
  1.9595001E-02   -3.4878745E-03
  1.9630000E-02   -3.5932339E-03
  1.9664999E-02   -3.6972510E-03
  1.9700000E-02   -3.7995605E-03
  1.9734999E-02   -3.8997817E-03
  1.9770000E-02   -3.9975233E-03
  1.9804999E-02   -4.0923823E-03
  1.9840000E-02   -4.1839429E-03
  1.9874999E-02   -4.2717783E-03
  1.9910000E-02   -4.3554516E-03
  1.9944999E-02   -4.4345199E-03
  1.9980000E-02   -4.5085335E-03
  2.0014999E-02   -4.5770388E-03
  2.0050000E-02   -4.6395757E-03
  2.0085000E-02   -4.6956856E-03
  2.0120000E-02   -4.7449106E-03
  2.0155000E-02   -4.7867959E-03
  2.0190001E-02   -4.8208875E-03
  2.0225000E-02   -4.8467382E-03
  2.0260001E-02   -4.8639132E-03
  2.0295000E-02   -4.8719901E-03
  2.0330001E-02   -4.8705582E-03
  2.0365000E-02   -4.8592198E-03
  2.0400001E-02   -4.8375982E-03
  2.0435000E-02   -4.8053428E-03
  2.0470001E-02   -4.7621201E-03
  2.0505000E-02   -4.7076186E-03
  2.0540001E-02   -4.6415641E-03
  2.0575000E-02   -4.5637153E-03
  2.0609999E-02   -4.4738571E-03
  2.0645000E-02   -4.3718065E-03
  2.0679999E-02   -4.2574257E-03
  2.0715000E-02   -4.1306163E-03
  2.0749999E-02   -3.9913184E-03
  2.0785000E-02   -3.8395207E-03
  2.0819999E-02   -3.6752559E-03
  2.0855000E-02   -3.4985985E-03
  2.0889999E-02   -3.3096741E-03
  2.0925000E-02   -3.1086651E-03
  2.0959999E-02   -2.8958046E-03
  2.0995000E-02   -2.6713719E-03
  2.1029999E-02   -2.4356984E-03
  2.1065000E-02   -2.1891724E-03
  2.1100000E-02   -1.9322362E-03
  2.1135001E-02   -1.6653833E-03
  2.1170000E-02   -1.3891592E-03
  2.1205001E-02   -1.1041629E-03
  2.1240000E-02   -8.1104512E-04
  2.1275001E-02   -5.1050534E-04
  2.1310000E-02   -2.0329322E-04
  2.1345001E-02    1.0979341E-04
  2.1380000E-02    4.2791714E-04
  2.1415001E-02    7.5020257E-04
  2.1450000E-02    1.0757301E-03
  2.1485001E-02    1.4035391E-03
  2.1520000E-02    1.7326414E-03
  2.1555001E-02    2.0620204E-03
  2.1590000E-02    2.3906294E-03
  2.1624999E-02    2.7174032E-03
  2.1660000E-02    3.0412660E-03
  2.1694999E-02    3.3611264E-03
  2.1730000E-02    3.6758790E-03
  2.1764999E-02    3.9844187E-03
  2.1800000E-02    4.2856471E-03
  2.1834999E-02    4.5784679E-03
  2.1870000E-02    4.8617972E-03
  2.1904999E-02    5.1345793E-03
  2.1940000E-02    5.3957785E-03
  2.1974999E-02    5.6443796E-03
  2.2010000E-02    5.8794050E-03
  2.2045000E-02    6.0999258E-03
  2.2080000E-02    6.3050576E-03
  2.2115000E-02    6.4939572E-03
  2.2150001E-02    6.6658412E-03
  2.2185000E-02    6.8199891E-03
  2.2220001E-02    6.9557452E-03
  2.2255000E-02    7.0725172E-03
  2.2290001E-02    7.1697896E-03
  2.2325000E-02    7.2471322E-03
  2.2360001E-02    7.3041916E-03
  2.2395000E-02    7.3406883E-03
  2.2430001E-02    7.3564327E-03
  2.2465000E-02    7.3513305E-03
  2.2500001E-02    7.3253801E-03
  2.2535000E-02    7.2786673E-03
  2.2569999E-02    7.2113653E-03
  2.2605000E-02    7.1237460E-03
  2.2639999E-02    7.0161712E-03
  2.2675000E-02    6.8890946E-03
  2.2709999E-02    6.7430660E-03
  2.2745000E-02    6.5787234E-03
  2.2779999E-02    6.3967882E-03
  2.2815000E-02    6.1980677E-03
  2.2849999E-02    5.9834481E-03
  2.2885000E-02    5.7538906E-03
  2.2919999E-02    5.5104322E-03
  2.2955000E-02    5.2541797E-03
  2.2990000E-02    4.9862973E-03
  2.3025000E-02    4.7080023E-03
  2.3060000E-02    4.4205696E-03
  2.3095001E-02    4.1253208E-03
  2.3130000E-02    3.8236063E-03
  2.3165001E-02    3.5168007E-03
  2.3200000E-02    3.2063108E-03
  2.3235001E-02    2.8935685E-03
  2.3270000E-02    2.5800010E-03
  2.3305001E-02    2.2670219E-03
  2.3340000E-02    1.9560487E-03
  2.3375001E-02    1.6484930E-03
  2.3410000E-02    1.3457316E-03
  2.3445001E-02    1.0491002E-03
  2.3480000E-02    7.5990177E-04
  2.3514999E-02    4.7939309E-04
  2.3550000E-02    2.0877439E-04
  2.3584999E-02   -5.0813847E-05
  2.3620000E-02   -2.9829980E-04
  2.3654999E-02   -5.3269113E-04
  2.3690000E-02   -7.5307966E-04
  2.3724999E-02   -9.5864007E-04
  2.3760000E-02   -1.1486307E-03
  2.3794999E-02   -1.3224065E-03
  2.3830000E-02   -1.4794327E-03
  2.3864999E-02   -1.6192758E-03
  2.3900000E-02   -1.7415932E-03
  2.3934999E-02   -1.8461500E-03
  2.3970000E-02   -1.9328328E-03
  2.4005000E-02   -2.0016336E-03
  2.4040001E-02   -2.0526412E-03
  2.4075000E-02   -2.0860513E-03
  2.4110001E-02   -2.1021699E-03
  2.4145000E-02   -2.1014055E-03
  2.4180001E-02   -2.0842615E-03
  2.4215000E-02   -2.0513395E-03
  2.4250001E-02   -2.0033303E-03
  2.4285000E-02   -1.9410072E-03
  2.4320001E-02   -1.8652226E-03
  2.4355000E-02   -1.7769074E-03
  2.4390001E-02   -1.6770642E-03
  2.4425000E-02   -1.5667480E-03
  2.4460001E-02   -1.4470580E-03
  2.4495000E-02   -1.3191439E-03
  2.4529999E-02   -1.1841980E-03
  2.4565000E-02   -1.0434340E-03
  2.4599999E-02   -8.9808070E-04
  2.4635000E-02   -7.4938138E-04
  2.4669999E-02   -5.9857941E-04
  2.4705000E-02   -4.4690596E-04
  2.4739999E-02   -2.9557760E-04
  2.4775000E-02   -1.4579132E-04
  2.4809999E-02    1.2911464E-06
  2.4845000E-02    1.4455918E-04
  2.4879999E-02    2.8295215E-04
  2.4915000E-02    4.1545276E-04
  2.4950000E-02    5.4110575E-04
  2.4985000E-02    6.5904076E-04
  2.5020000E-02    7.6846458E-04
  2.5055001E-02    8.6865475E-04
  2.5090000E-02    9.5897255E-04
  2.5125001E-02    1.0388732E-03
  2.5160000E-02    1.1079086E-03
  2.5195001E-02    1.1657280E-03
  2.5230000E-02    1.2120710E-03
  2.5265001E-02    1.2467677E-03
  2.5300000E-02    1.2697560E-03
  2.5335001E-02    1.2810776E-03
  2.5370000E-02    1.2808634E-03
  2.5405001E-02    1.2693350E-03
  2.5440000E-02    1.2468075E-03
  2.5474999E-02    1.2136812E-03
  2.5510000E-02    1.1704414E-03
  2.5544999E-02    1.1176557E-03
  2.5580000E-02    1.0559611E-03
  2.5614999E-02    9.8605640E-04
  2.5650000E-02    9.0870057E-04
  2.5684999E-02    8.2470966E-04
  2.5720000E-02    7.3494815E-04
  2.5754999E-02    6.4031250E-04
  2.5790000E-02    5.4172182E-04
  2.5824999E-02    4.4012436E-04
  2.5860000E-02    3.3648856E-04
  2.5895000E-02    2.3177732E-04
  2.5930000E-02    1.2694388E-04
  2.5965000E-02    2.2937278E-05
  2.6000001E-02   -7.9311350E-05
  2.6035000E-02   -1.7890210E-04
  2.6070001E-02   -2.7497183E-04
  2.6105000E-02   -3.6670512E-04
  2.6140001E-02   -4.5333680E-04
  2.6175000E-02   -5.3414842E-04
  2.6210001E-02   -6.0848310E-04
  2.6245000E-02   -6.7576068E-04
  2.6280001E-02   -7.3547545E-04
  2.6315000E-02   -7.8719220E-04
  2.6350001E-02   -8.3055103E-04
  2.6385000E-02   -8.6527341E-04
  2.6419999E-02   -8.9116837E-04
  2.6455000E-02   -9.0813189E-04
  2.6489999E-02   -9.1613899E-04
  2.6525000E-02   -9.1524672E-04
  2.6559999E-02   -9.0559875E-04
  2.6595000E-02   -8.8741916E-04
  2.6629999E-02   -8.6100627E-04
  2.6665000E-02   -8.2673115E-04
  2.6699999E-02   -7.8503502E-04
  2.6735000E-02   -7.3642650E-04
  2.6769999E-02   -6.8147480E-04
  2.6805000E-02   -6.2079850E-04
  2.6839999E-02   -5.5506086E-04
  2.6875000E-02   -4.8496842E-04
  2.6910000E-02   -4.1126364E-04
  2.6945001E-02   -3.3471512E-04
  2.6980000E-02   -2.5610637E-04