 -4.8000002E-03    1.0000000E-24
 -4.7650002E-03    1.0000002E-24
 -4.7300002E-03    1.0000001E-24
 -4.6950001E-03    1.0000000E-24
 -4.6600001E-03    1.0000003E-24
 -4.6250001E-03    1.0000002E-24
 -4.5900000E-03    9.9999992E-25
 -4.5550000E-03    1.0000002E-24
 -4.5200000E-03    1.0000000E-24
 -4.4849999E-03    9.9999992E-25
 -4.4499999E-03    1.0000002E-24
 -4.4149999E-03    1.0000003E-24
 -4.3799998E-03    9.9999953E-25
 -4.3449998E-03    9.9999972E-25
 -4.3100002E-03    1.0000007E-24
 -4.2750002E-03    1.0000002E-24
 -4.2400002E-03    9.9999982E-25
 -4.2050001E-03    1.0000006E-24
 -4.1700001E-03    1.0000006E-24
 -4.1350001E-03    9.9999943E-25
 -4.1000000E-03    9.9999943E-25
 -4.0650000E-03    1.0000004E-24
 -4.0300000E-03    1.0000001E-24
 -3.9949999E-03    9.9999963E-25
 -3.9599999E-03    1.0000005E-24
 -3.9249999E-03    1.0000007E-24
 -3.8900001E-03    9.9999953E-25
 -3.8550000E-03    9.9999963E-25
 -3.8200000E-03    1.0000005E-24
 -3.7849999E-03    1.0000002E-24
 -3.7499999E-03    9.9999972E-25
 -3.7150001E-03    1.0000005E-24
 -3.6800001E-03    1.0000007E-24
 -3.6450000E-03    9.9999972E-25
 -3.6100000E-03    9.9999953E-25
 -3.5750000E-03    9.9999992E-25
 -3.5399999E-03    9.9999992E-25
 -3.5049999E-03    1.0000000E-24
 -3.4700001E-03    1.0000006E-24
 -3.4350001E-03    1.0000005E-24
 -3.4000000E-03    1.0000002E-24
 -3.3650000E-03    9.9999992E-25
 -3.3300000E-03    9.9999992E-25
 -3.2949999E-03    9.9999972E-25
 -3.2599999E-03    9.9999992E-25
 -3.2250001E-03    1.0000004E-24
 -3.1900001E-03    1.0000002E-24
 -3.1550000E-03    1.0000000E-24
 -3.1200000E-03    1.0000002E-24
 -3.0850000E-03    1.0000004E-24
 -3.0499999E-03    9.9999982E-25
 -3.0149999E-03    9.9999992E-25
 -2.9800001E-03    1.0000005E-24
 -2.9450001E-03    1.0000002E-24
 -2.9100000E-03    9.9999992E-25
 -2.8750000E-03    1.0000001E-24
 -2.8400000E-03    1.0000002E-24
 -2.8049999E-03    1.0000000E-24
 -2.7699999E-03    1.0000002E-24
 -2.7350001E-03    1.0000005E-24
 -2.7000001E-03    1.0000002E-24
 -2.6650000E-03    9.9999972E-25
 -2.6300000E-03    9.9999992E-25
 -2.5950000E-03    1.0000002E-24
 -2.5599999E-03    1.0000003E-24
 -2.5249999E-03    9.9999982E-25
 -2.4900001E-03    9.9999982E-25
 -2.4550001E-03    1.0000003E-24
 -2.4200000E-03    1.0000008E-24
 -2.3850000E-03    1.0000005E-24
 -2.3500000E-03    1.0000000E-24
 -2.3149999E-03    9.9999963E-25
 -2.2799999E-03    9.9999893E-25
 -2.2450001E-03    9.9999903E-25
 -2.2100001E-03    1.0000005E-24
 -2.1750000E-03    1.0000013E-24
 -2.1400000E-03    1.0000002E-24
 -2.1050000E-03    1.0000000E-24
 -2.0699999E-03    1.0000009E-24
 -2.0349999E-03    1.0000004E-24
 -2.0000001E-03    9.9999913E-25
 -1.9650001E-03    9.9999992E-25
 -1.9300000E-03    1.0000009E-24
 -1.8950000E-03    1.0000004E-24
 -1.8600000E-03    9.9999943E-25
 -1.8250000E-03    9.9999963E-25
 -1.7900000E-03    1.0000005E-24
 -1.7550000E-03    1.0000005E-24
 -1.7199999E-03    9.9999992E-25
 -1.6850000E-03    1.0000005E-24
 -1.6500000E-03    1.0000010E-24
 -1.6150000E-03    9.9999933E-25
 -1.5800000E-03    9.9999824E-25
 -1.5450000E-03    9.9999953E-25
 -1.5100000E-03    1.0000011E-24
 -1.4750001E-03    1.0000006E-24
 -1.4400000E-03    9.9999963E-25
 -1.4050000E-03    1.0000001E-24
 -1.3700000E-03    1.0000008E-24
 -1.3350000E-03    1.0000000E-24
 -1.3000000E-03    9.9999943E-25
 -1.2650000E-03    9.9999992E-25
 -1.2300001E-03    1.0000005E-24
 -1.1950000E-03    1.0000005E-24
 -1.1600000E-03    9.9999943E-25
 -1.1250000E-03    9.9999933E-25
 -1.0900000E-03    1.0000010E-24
 -1.0550000E-03    1.0000004E-24
 -1.0200000E-03    9.9999903E-25
 -9.8500005E-04    1.0000000E-24
 -9.5000002E-04    1.0000008E-24
 -9.1499998E-04    9.9999992E-25
 -8.8000001E-04    9.9999982E-25
 -8.4499997E-04    1.0000006E-24
 -8.1000000E-04    1.0000005E-24
 -7.7500002E-04    9.9999943E-25
 -7.3999999E-04    9.9999903E-25
 -7.0500001E-04    9.9999953E-25
 -6.6999998E-04    1.0000003E-24
 -6.3500000E-04    1.0000009E-24
 -6.0000003E-04    1.0000008E-24
 -5.6499999E-04    1.0000002E-24
 -5.3000002E-04    1.0000003E-24
 -4.9499999E-04    1.0000002E-24
 -4.6000001E-04    9.9999953E-25
 -4.2500001E-04    9.9999953E-25
 -3.9000000E-04    1.0000003E-24
 -3.5500000E-04    1.0000002E-24
 -3.1999999E-04    1.0000001E-24
 -2.8499999E-04    1.0000002E-24
 -2.5000001E-04    1.0000001E-24
 -2.1499999E-04    9.9999972E-25
 -1.8000000E-04    1.0000000E-24
 -1.4500000E-04    9.9999972E-25
 -1.1000000E-04    9.9999953E-25
 -7.5000004E-05    1.0000004E-24
 -3.9999999E-05    1.0000011E-24
 -4.9999999E-06    1.0000003E-24
  2.9999999E-05    9.9999992E-25
  6.5000000E-05    1.0000005E-24
  9.9999997E-05    1.0000001E-24
  1.3499999E-04    9.9999874E-25
  1.7000000E-04    9.9999903E-25
  2.0500000E-04    1.0000005E-24
  2.3999999E-04    1.0000004E-24
  2.7500000E-04    9.9999992E-25
  3.1000000E-04    1.0000010E-24
  3.4500001E-04    1.0000008E-24
  3.8000001E-04    9.9999913E-25
  4.1499999E-04    9.9999943E-25
  4.4999999E-04    1.0000006E-24
  4.8500000E-04    9.9999933E-25
  5.2000000E-04    9.9999864E-25
  5.5499998E-04    1.0000008E-24
  5.9000001E-04    1.0000013E-24
  6.2499999E-04    9.9999982E-25
  6.6000002E-04    9.9999992E-25
  6.9500000E-04    9.9999992E-25
  7.3000003E-04    9.9999903E-25
  7.6500000E-04    1.0000003E-24
  7.9999998E-04    1.0000014E-24
  8.3500001E-04    9.9999982E-25
  8.6999999E-04    9.9999982E-25
  9.0500002E-04    1.0000015E-24
  9.4000000E-04    1.0000005E-24
  9.7499997E-04    9.9999884E-25
  1.0100000E-03    9.9999992E-25
  1.0450000E-03    1.0000014E-24
  1.0800000E-03    1.0000003E-24
  1.1150000E-03    9.9999923E-25
  1.1500000E-03    1.0000006E-24
  1.1849999E-03    1.0000011E-24
  1.2200000E-03    9.9999903E-25
  1.2550000E-03    9.9999795E-25
  1.2900000E-03    1.0000006E-24
  1.3250000E-03    1.0000020E-24
  1.3600000E-03    9.9999824E-25
  1.3950000E-03    9.9999726E-25
  1.4299999E-03    1.0000045E-24
  1.4650000E-03    1.0000047E-24
  1.5000000E-03    9.9999341E-25
  1.5350000E-03    9.9999381E-25
  1.5700000E-03    1.0000079E-24
  1.6050000E-03    1.0000088E-24
  1.6400000E-03    9.9999548E-25
  1.6749999E-03    9.9998355E-25
  1.7100000E-03    9.9999095E-25
  1.7450000E-03    1.0000438E-24
  1.7800000E-03    1.0000462E-24
  1.8150000E-03    9.9988386E-25
  1.8500000E-03    9.9987824E-25
  1.8850000E-03    1.0002848E-24
  1.9200000E-03    1.0002544E-24
  1.9550000E-03    9.9936223E-25
  1.9900000E-03    9.9952956E-25
  2.0250001E-03    1.0013142E-24
  2.0600001E-03    1.0008221E-24
  2.0949999E-03    9.9749036E-25
  2.1299999E-03    9.9857928E-25
  2.1650000E-03    1.0044889E-24
  2.2000000E-03    1.0025365E-24
  2.2350000E-03    9.9242252E-25
  2.2700001E-03    9.9520296E-25
  2.3050001E-03    1.0121189E-24
  2.3399999E-03    1.0095632E-24
  2.3749999E-03    9.8167094E-25
  2.4100000E-03    9.8042286E-25
  2.4450000E-03    1.0259492E-24
  2.4800000E-03    1.0400518E-24
  2.5150001E-03    9.6659156E-25
  2.5500001E-03    9.1963136E-25
  2.5849999E-03    1.0360214E-24
  2.6199999E-03    1.1565793E-24
  2.6550000E-03    9.7769744E-25
  2.6900000E-03    7.0525343E-25
  2.7250000E-03    9.6690119E-25
  2.7600001E-03    1.5347617E-24
  2.7950001E-03    1.1822808E-24
  2.8299999E-03    6.6742618E-26
  2.8649999E-03    4.7354418E-25
  2.9000000E-03    2.5621039E-24
  2.9350000E-03    2.2528735E-24
  2.9700000E-03   -1.4950028E-24
  3.0050001E-03   -1.6923835E-24
  3.0400001E-03    4.7678599E-24
  3.0749999E-03    6.4034183E-24
  3.1099999E-03   -4.2873754E-24
  3.1450000E-03   -9.2838066E-24
  3.1800000E-03    7.6456012E-24
  3.2150000E-03    1.9699253E-23
  3.2500001E-03   -5.7755489E-24
  3.2850001E-03   -3.1589493E-23
  3.3199999E-03    4.3557121E-24
  3.3549999E-03    5.5459219E-23
  3.3900000E-03    9.1533251E-24
  3.4250000E-03   -8.6065350E-23
  3.4600000E-03   -3.4963644E-23
  3.4950001E-03    1.3345972E-22
  3.5300001E-03    9.4984167E-23
  3.5649999E-03   -1.8882093E-22
  3.5999999E-03   -2.0334418E-22
  3.6350000E-03    2.5220693E-22
  3.6700000E-03    4.0100407E-22
  3.7050000E-03   -2.9301078E-22
  3.7400001E-03   -7.2537646E-22
  3.7750001E-03    2.6960923E-22
  3.8099999E-03    1.2407568E-21
  3.8449999E-03   -7.8639575E-23
  3.8800000E-03   -1.9975923E-21
  3.9149998E-03   -4.3906670E-22
  3.9499998E-03    3.0421098E-21
  3.9849998E-03    1.5630568E-21
  4.0199999E-03   -4.3387501E-21
  4.0549999E-03   -3.6955837E-21
  4.0899999E-03    5.7205250E-21
  4.1250000E-03    7.4176315E-21
  4.1600000E-03   -6.7242716E-21
  4.1950000E-03   -1.3447075E-20
  4.2300001E-03    6.4249045E-21
  4.2650001E-03    2.2586170E-20
  4.3000001E-03   -3.1351012E-21
  4.3350002E-03   -3.5467243E-20
  4.3700002E-03   -5.8858909E-21
  4.4049998E-03    5.2136832E-20
  4.4399998E-03    2.4786942E-20
  4.4749998E-03   -7.1240911E-20
  4.5099999E-03   -5.9289573E-20
  4.5449999E-03    8.8826073E-20
  4.5799999E-03    1.1656433E-19
  4.6150000E-03   -9.6550259E-20
  4.6500000E-03   -2.0433005E-19
  4.6850001E-03    7.9454175E-20
  4.7200001E-03    3.2878289E-19
  4.7550001E-03   -1.3402899E-20
  4.7900002E-03   -4.9057265E-19
  4.8250002E-03   -1.3707686E-19
  4.8600002E-03    6.7823449E-19
  4.8949998E-03    4.1954999E-19
  4.9299998E-03   -8.5835953E-19
  4.9649999E-03   -8.9102448E-19
  4.9999999E-03    9.6254324E-19
  5.0349999E-03    1.6093151E-18
  5.0700000E-03   -8.7189479E-19
  5.1050000E-03   -2.6148416E-18
  5.1400000E-03    4.0193285E-19
  5.1750001E-03    3.8991073E-18
  5.2100001E-03    7.0693461E-19
  5.2450001E-03   -5.3564717E-18
  5.2800002E-03   -2.7844744E-18
  5.3150002E-03    6.7182079E-18
  5.3500002E-03    6.1985631E-18
  5.3849998E-03   -7.4722641E-18
  5.4199998E-03   -1.1279544E-17
  5.4549999E-03    6.7803937E-18
  5.4899999E-03    1.8183177E-17
  5.5249999E-03   -3.4154856E-18
  5.5600000E-03   -2.6676375E-17
  5.5950000E-03   -4.2421151E-18
  5.6300000E-03    3.5840121E-17
  5.6650001E-03    1.8095167E-17
  5.7000001E-03   -4.3703138E-17
  5.7350001E-03   -4.0037292E-17
  5.7700002E-03    4.6853905E-17
  5.8050002E-03    7.1402363E-17
  5.8400002E-03   -4.0124914E-17
  5.8749998E-03   -1.1209269E-16
  5.9099998E-03    1.6505913E-17
  5.9449999E-03    1.5936349E-16
  5.9799999E-03    3.2502828E-17
  6.0149999E-03   -2.0631826E-16
  6.0500000E-03   -1.1581914E-16
  6.0850000E-03    2.4030568E-16
  6.1200000E-03    2.4071708E-16
  6.1550001E-03   -2.4158018E-16
  6.1900001E-03   -4.0954186E-16
  6.2250001E-03    1.8280617E-16
  6.2600002E-03    6.1513608E-16
  6.2950002E-03   -3.0197836E-17
  6.3299998E-03   -8.3521525E-16
  6.3649998E-03   -2.5274613E-16
  6.3999998E-03    1.0264059E-15
  6.4349999E-03    6.9797140E-16
  6.4699999E-03   -1.1192500E-15
  6.5049999E-03   -1.3212951E-15
  6.5400000E-03    1.0162456E-15
  6.5750000E-03    2.1064907E-15
  6.6100000E-03   -5.9556776E-16
  6.6450001E-03   -2.9859343E-15
  6.6800001E-03   -2.7639897E-16
  6.7150001E-03    3.8203863E-15
  6.7500002E-03    1.7206787E-15
  6.7850002E-03   -4.3824625E-15
  6.8199998E-03   -3.8076151E-15
  6.8549998E-03    4.3503367E-15
  6.8899998E-03    6.5050381E-15
  6.9249999E-03   -3.3204407E-15
  6.9599999E-03   -9.6166751E-15
  6.9949999E-03    8.4822165E-16
  7.0300000E-03    1.2719321E-14
  7.0650000E-03    3.4743638E-15
  7.1000000E-03   -1.5113470E-14
  7.1350001E-03   -9.9000203E-15
  7.1700001E-03    1.5807868E-14
  7.2050001E-03    1.8368496E-14
  7.2400002E-03   -1.3563388E-14
  7.2750002E-03   -2.8324150E-14
  7.3099998E-03    7.0217168E-15
  7.3449998E-03    3.8536187E-14
  7.3799998E-03    5.0587150E-15
  7.4149999E-03   -4.6967401E-14
  7.4499999E-03   -2.3452946E-14
  7.4850000E-03    5.0749562E-14
  7.5200000E-03    4.8018006E-14
  7.5550000E-03   -4.6336582E-14
  7.5900001E-03   -7.7190485E-14
  7.6250001E-03    2.9899650E-14
  7.6600001E-03    1.0751805E-13
  7.6950002E-03    1.9876894E-15
  7.7300002E-03   -1.3335348E-13
  7.7650002E-03   -5.1371505E-14
  7.7999998E-03    1.4687637E-13
  7.8349998E-03    1.1770999E-13
  7.8699999E-03   -1.3861296E-13
  7.9049999E-03   -1.9659307E-13
  7.9399999E-03    9.8608452E-14
  7.9750000E-03    2.7864145E-13
  8.0100000E-03   -1.8328831E-14
  8.0450000E-03   -3.4894182E-13
  8.0800001E-03   -1.0676977E-13
  8.1150001E-03    3.8741316E-13
  8.1500001E-03    2.7423747E-13
  8.1850002E-03   -3.7051154E-13
  8.2200002E-03   -4.7167522E-13
  8.2550002E-03    2.7454200E-13
  8.2900003E-03    6.7451063E-13
  8.3250003E-03   -8.0624289E-14
  8.3600003E-03   -8.4539022E-13
  8.3950004E-03   -2.1902407E-13
  8.4300004E-03    9.3607836E-13
  8.4650004E-03    6.1429182E-13
  8.5000005E-03   -8.9263205E-13
  8.5349996E-03   -1.0711771E-12
  8.5699996E-03    6.6419109E-13
  8.6049996E-03    1.5283151E-12
  8.6399997E-03   -2.1497158E-13
  8.6749997E-03   -1.8979573E-12
  8.7099997E-03   -4.6182280E-13
  8.7449998E-03    2.0730574E-12
  8.7799998E-03    1.3304294E-12
  8.8149998E-03   -1.9415554E-12
  8.8499999E-03   -2.3026108E-12
  8.8849999E-03    1.4075499E-12
  8.9199999E-03    3.2350166E-12
  8.9550000E-03   -4.1746947E-13
  8.9900000E-03   -3.9374671E-12
  9.0250000E-03   -1.0128192E-12
  9.0600001E-03    4.1944360E-12
  9.0950001E-03    2.7755502E-12
  9.1300001E-03   -3.7999092E-12
  9.1650002E-03   -4.6601863E-12
  9.2000002E-03    2.6027216E-12
  9.2350002E-03    6.3604564E-12
  9.2700003E-03   -5.5593296E-13
  9.3050003E-03   -7.5042108E-12
  9.3400003E-03   -2.2391338E-12
  9.3750004E-03    7.7070763E-12
  9.4100004E-03    5.5058505E-12
  9.4450004E-03   -6.6460513E-12
  9.4799995E-03   -8.7939499E-12
  9.5149996E-03    4.1427664E-12
  9.5499996E-03    1.1518066E-11
  9.5849996E-03   -2.4105853E-13
  9.6199997E-03   -1.3035887E-11
  9.6549997E-03   -4.7398895E-12
  9.6899997E-03    1.2759871E-11
  9.7249998E-03    1.0195341E-11
  9.7599998E-03   -1.0286985E-11
  9.7949998E-03   -1.5280657E-11
  9.8299999E-03    5.5240157E-12
  9.8649999E-03    1.9017921E-11
  9.8999999E-03    1.2200956E-12
  9.9350000E-03   -2.0456062E-11
  9.9700000E-03   -9.2035529E-12
  1.0005000E-02    1.8861322E-11
  1.0040000E-02    1.7302184E-11
  1.0075000E-02   -1.3904573E-11
  1.0110000E-02   -2.4149585E-11
  1.0145000E-02    5.8028968E-12
  1.0180000E-02    2.8351483E-11
  1.0215000E-02    4.6207513E-12
  1.0250000E-02   -2.8745586E-11
  1.0285000E-02   -1.5988584E-11
  1.0320000E-02    2.4659946E-11
  1.0355000E-02    2.6536764E-11
  1.0390000E-02   -1.6116346E-11
  1.0425000E-02   -3.4387802E-11
  1.0460000E-02    3.9276707E-12
  1.0495000E-02    3.7884876E-11
  1.0530000E-02    1.0346678E-11
  1.0565000E-02   -3.5927525E-11
  1.0600000E-02   -2.4597590E-11
  1.0635000E-02    2.8238467E-11
  1.0670000E-02    3.6489870E-11
  1.0705000E-02   -1.5502292E-11
  1.0740000E-02   -4.3862955E-11
  1.0775000E-02   -6.6459810E-13
  1.0810000E-02    4.5134292E-11
  1.0845000E-02    1.7920374E-11
  1.0880000E-02   -3.9630181E-11
  1.0915000E-02   -3.3551543E-11
  1.0950000E-02    2.7779884E-11
  1.0985000E-02    4.4926691E-11
  1.1020000E-02   -1.1121157E-11
  1.1055000E-02   -4.9970143E-11
  1.1090000E-02   -7.9011355E-12
  1.1125000E-02    4.7561975E-11
  1.1160000E-02    2.6314725E-11
  1.1195000E-02   -3.7780629E-11
  1.1230000E-02   -4.1105730E-11
  1.1265000E-02    2.1947968E-11
  1.1300000E-02    4.9728860E-11
  1.1335000E-02   -2.4716399E-12
  1.1370000E-02   -5.0571471E-11
  1.1405000E-02   -1.7507624E-11
  1.1440000E-02    4.3293005E-11
  1.1475000E-02    3.4632266E-11
  1.1510000E-02   -2.8952290E-11
  1.1545000E-02   -4.5913360E-11
  1.1580000E-02    9.8862906E-12
  1.1615000E-02    4.9272399E-11
  1.1650000E-02    1.0629849E-11
  1.1685000E-02   -4.3966327E-11
  1.1720000E-02   -2.8911012E-11
  1.1755000E-02    3.0820364E-11
  1.1790000E-02    4.1526397E-11
  1.1825000E-02   -1.2179199E-11
  1.1860000E-02   -4.5978502E-11
  1.1895000E-02   -8.4519969E-12
  1.1930000E-02    4.1237801E-11
  1.1965000E-02    2.6996088E-11
  1.2000000E-02   -2.8061321E-11
  1.2035000E-02   -3.9556098E-11
  1.2070000E-02    9.0357713E-12
  1.2105000E-02    4.3288706E-11
  1.2140000E-02    1.1805327E-11
  1.2175000E-02   -3.7185758E-11
  1.2210000E-02   -2.9835225E-11
  1.2245000E-02    2.2417840E-11
  1.2280000E-02    4.0870592E-11
  1.2315000E-02   -2.1601505E-12
  1.2350000E-02   -4.2088198E-11
  1.2385000E-02   -1.8927969E-11
  1.2420000E-02    3.2801321E-11
  1.2455000E-02    3.5600758E-11
  1.2490000E-02   -1.4971444E-11
  1.2525000E-02   -4.3400998E-11
  1.2560000E-02   -7.0428511E-12
  1.2595000E-02    4.0029518E-11
  1.2630000E-02    2.7625227E-11
  1.2665000E-02   -2.5989004E-11
  1.2700000E-02   -4.1297483E-11
  1.2735000E-02    4.5127296E-12
  1.2770000E-02    4.3955593E-11
  1.2805000E-02    1.8878123E-11
  1.2840000E-02   -3.4151407E-11
  1.2875000E-02   -3.7536523E-11
  1.2910000E-02    1.4025027E-11
  1.2945000E-02    4.5736151E-11
  1.2980000E-02    1.1109409E-11
  1.3015000E-02   -4.0473121E-11
  1.3050000E-02   -3.4304195E-11
  1.3085000E-02    2.2136227E-11
  1.3120000E-02    4.8460340E-11
  1.3155000E-02    5.2564246E-12
  1.3190000E-02   -4.7937699E-11
  1.3225000E-02   -3.4166378E-11
  1.3260000E-02    3.0900341E-11
  1.3295000E-02    5.5444843E-11
  1.3330000E-02   -7.1554134E-13
  1.3365000E-02   -6.1637424E-11
  1.3400000E-02   -3.5276292E-11
  1.3435000E-02    4.8925412E-11
  1.3470000E-02    6.7767715E-11
  1.3505000E-02   -1.7580489E-11
  1.3540000E-02   -8.6612661E-11
  1.3575000E-02   -2.6797932E-11
  1.3610000E-02    8.3403964E-11
  1.3645000E-02    7.2920128E-11
  1.3680000E-02   -5.5922437E-11
  1.3715000E-02   -1.0773296E-10
  1.3750000E-02    9.4466952E-12
  1.3785000E-02    1.2145152E-10
  1.3820000E-02    4.6302906E-11
  1.3855000E-02   -1.0874317E-10
  1.3890000E-02   -9.9123161E-11
  1.3925000E-02    6.9138105E-11
  1.3960000E-02    1.3492721E-10
  1.3995000E-02   -9.9305963E-12
  1.4030000E-02   -1.4245499E-10
  1.4065000E-02   -5.4244213E-11
  1.4100000E-02    1.1929559E-10
  1.4135000E-02    1.0829636E-10
  1.4170000E-02   -7.0817074E-11
  1.4205000E-02   -1.4117139E-10
  1.4240000E-02    5.6651719E-12
  1.4275000E-02    1.4397297E-10
  1.4310000E-02    6.2287203E-11
  1.4345000E-02   -1.1356954E-10
  1.4380000E-02   -1.1510409E-10
  1.4415000E-02    5.8361697E-11
  1.4450000E-02    1.4055951E-10
  1.4485000E-02    6.9423347E-12
  1.4520000E-02   -1.3566685E-10
  1.4555000E-02   -6.8691469E-11
  1.4590000E-02    1.0306347E-10
  1.4625000E-02    1.1677107E-10
  1.4660000E-02   -4.3966504E-11
  1.4695000E-02   -1.3182325E-10
  1.4730000E-02   -1.9454867E-11
  1.4765000E-02    1.1649583E-10
  1.4800000E-02    7.6606117E-11
  1.4835000E-02   -6.7106112E-11
  1.4870000E-02   -9.7745777E-11
  1.4905000E-02    2.2801844E-11
  1.4940000E-02    1.1477940E-10
  1.4975000E-02    5.0387888E-11
  1.5010000E-02   -7.0763270E-11
  1.5045000E-02   -7.1202322E-11
  1.5080000E-02    5.3021060E-11
  1.5115000E-02    1.2674659E-10
  1.5150000E-02    4.7506603E-11
  1.5185000E-02   -5.7999473E-11
  1.5220000E-02   -1.6723900E-11
  1.5255000E-02    1.2146753E-10
  1.5290000E-02    1.5178013E-10
  1.5325000E-02    4.0388158E-11
  1.5360000E-02   -1.1536591E-11
  1.5395000E-02    1.0874866E-10
  1.5430000E-02    2.3778451E-10
  1.5465000E-02    2.0424187E-10
  1.5500000E-02    1.1184371E-10
  1.5535000E-02    1.6554969E-10
  1.5570000E-02    3.3603753E-10
  1.5605000E-02    4.1661150E-10
  1.5640000E-02    3.6295722E-10
  1.5675001E-02    3.6013381E-10
  1.5710000E-02    5.2962246E-10
  1.5745001E-02    7.4674755E-10
  1.5780000E-02    8.3403634E-10
  1.5814999E-02    8.3160623E-10
  1.5850000E-02    9.5068331E-10
  1.5884999E-02    1.2657927E-09
  1.5920000E-02    1.5854911E-09
  1.5954999E-02    1.7316761E-09
  1.5990000E-02    1.8470218E-09
  1.6024999E-02    2.2145847E-09
  1.6060000E-02    2.8031126E-09
  1.6094999E-02    3.2859713E-09
  1.6130000E-02    3.5821079E-09
  1.6164999E-02    4.0343195E-09
  1.6200000E-02    4.8647761E-09
  1.6235000E-02    5.8060965E-09
  1.6270000E-02    6.5701222E-09
  1.6305000E-02    7.3605206E-09
  1.6340001E-02    8.5366985E-09
  1.6375000E-02    1.0029920E-08
  1.6410001E-02    1.1527645E-08
  1.6445000E-02    1.3046924E-08
  1.6480001E-02    1.4886895E-08
  1.6515000E-02    1.7140616E-08
  1.6550001E-02    1.9654605E-08
  1.6585000E-02    2.2386850E-08
  1.6620001E-02    2.5465150E-08
  1.6655000E-02    2.8971911E-08
  1.6690001E-02    3.2943966E-08
  1.6725000E-02    3.7470667E-08
  1.6759999E-02    4.2580272E-08
  1.6795000E-02    4.8197066E-08
  1.6829999E-02    5.4403046E-08
  1.6865000E-02    6.1506853E-08
  1.6899999E-02    6.9642780E-08
  1.6935000E-02    7.8608053E-08
  1.6969999E-02    8.8355335E-08
  1.7005000E-02    9.9293416E-08
  1.7039999E-02    1.1178392E-07
  1.7075000E-02    1.2571326E-07
  1.7109999E-02    1.4090504E-07
  1.7145000E-02    1.5764221E-07
  1.7180000E-02    1.7641838E-07
  1.7215000E-02    1.9740446E-07
  1.7250000E-02    2.2054355E-07
  1.7285001E-02    2.4594729E-07
  1.7320000E-02    2.7396271E-07
  1.7355001E-02    3.0495613E-07
  1.7390000E-02    3.3922012E-07
  1.7425001E-02    3.7695528E-07
  1.7460000E-02    4.1828534E-07
  1.7495001E-02    4.6353239E-07
  1.7530000E-02    5.1328590E-07
  1.7565001E-02    5.6804095E-07
  1.7600000E-02    6.2794254E-07
  1.7635001E-02    6.9313597E-07
  1.7670000E-02    7.6429541E-07
  1.7704999E-02    8.4230390E-07
  1.7740000E-02    9.2744301E-07
  1.7774999E-02    1.0197990E-06
  1.7810000E-02    1.1201537E-06
  1.7844999E-02    1.2294958E-06
  1.7880000E-02    1.3483041E-06
  1.7914999E-02    1.4769245E-06
  1.7950000E-02    1.6161109E-06
  1.7984999E-02    1.7668395E-06
  1.8020000E-02    1.9299757E-06
  1.8054999E-02    2.1061458E-06
  1.8090000E-02    2.2959471E-06
  1.8124999E-02    2.5004692E-06
  1.8160000E-02    2.7209462E-06
  1.8195000E-02    2.9581906E-06
  1.8230001E-02    3.2128180E-06
  1.8265000E-02    3.4860300E-06
  1.8300001E-02    3.7791267E-06
  1.8335000E-02    4.0931905E-06
  1.8370001E-02    4.4293515E-06
  1.8405000E-02    4.7886624E-06
  1.8440001E-02    5.1721668E-06
  1.8475000E-02    5.5813066E-06
  1.8510001E-02    6.0176876E-06
  1.8545000E-02    6.4825276E-06
  1.8580001E-02    6.9764274E-06
  1.8615000E-02    7.5008070E-06
  1.8650001E-02    8.0581740E-06
  1.8685000E-02    8.6496684E-06
  1.8719999E-02    9.2756163E-06
  1.8755000E-02    9.9378285E-06
  1.8789999E-02    1.0638342E-05
  1.8825000E-02    1.1378067E-05
  1.8859999E-02    1.2158633E-05
  1.8895000E-02    1.2981479E-05
  1.8929999E-02    1.3847221E-05
  1.8965000E-02    1.4757793E-05
  1.8999999E-02    1.5715412E-05
  1.9035000E-02    1.6720123E-05
  1.9069999E-02    1.7772871E-05
  1.9105000E-02    1.8876226E-05
  1.9140000E-02    2.0030973E-05
  1.9175000E-02    2.1237394E-05
  1.9210000E-02    2.2497115E-05
  1.9245001E-02    2.3810926E-05
  1.9280000E-02    2.5179108E-05
  1.9315001E-02    2.6603633E-05
  1.9350000E-02    2.8084629E-05
  1.9385001E-02    2.9622224E-05
  1.9420000E-02    3.1217303E-05
  1.9455001E-02    3.2869295E-05
  1.9490000E-02    3.4578330E-05
  1.9525001E-02    3.6345889E-05
  1.9560000E-02    3.8171307E-05
  1.9595001E-02    4.0053113E-05
  1.9630000E-02    4.1991036E-05
  1.9664999E-02    4.3984990E-05
  1.9700000E-02    4.6033889E-05
  1.9734999E-02    4.8136382E-05
  1.9770000E-02    5.0291026E-05
  1.9804999E-02    5.2496351E-05
  1.9840000E-02    5.4750744E-05
  1.9874999E-02    5.7052919E-05
  1.9910000E-02    5.9399521E-05
  1.9944999E-02    6.1787468E-05
  1.9980000E-02    6.4215623E-05
  2.0014999E-02    6.6681132E-05
  2.0050000E-02    6.9180322E-05
  2.0085000E-02    7.1710092E-05
  2.0120000E-02    7.4265416E-05
  2.0155000E-02    7.6841541E-05
  2.0190001E-02    7.9437246E-05
  2.0225000E-02    8.2048893E-05
  2.0260001E-02    8.4667590E-05
  2.0295000E-02    8.7290580E-05
  2.0330001E-02    8.9915600E-05
  2.0365000E-02    9.2532995E-05
  2.0400001E-02    9.5138006E-05
  2.0435000E-02    9.7728116E-05
  2.0470001E-02    1.0029487E-04
  2.0505000E-02    1.0283115E-04
  2.0540001E-02    1.0533517E-04
  2.0575000E-02    1.0779805E-04
  2.0609999E-02    1.1021023E-04
  2.0645000E-02    1.1256994E-04
  2.0679999E-02    1.1487041E-04
  2.0715000E-02    1.1710180E-04
  2.0749999E-02    1.1925992E-04
  2.0785000E-02    1.2133834E-04
  2.0819999E-02    1.2332769E-04
  2.0855000E-02    1.2522355E-04
  2.0889999E-02    1.2702073E-04
  2.0925000E-02    1.2871018E-04
  2.0959999E-02    1.3028622E-04
  2.0995000E-02    1.3174367E-04
  2.1029999E-02    1.3307486E-04
  2.1065000E-02    1.3427457E-04
  2.1100000E-02    1.3533894E-04
  2.1135001E-02    1.3626151E-04
  2.1170000E-02    1.3703622E-04
  2.1205001E-02    1.3765914E-04
  2.1240000E-02    1.3812671E-04
  2.1275001E-02    1.3843435E-04
  2.1310000E-02    1.3857801E-04
  2.1345001E-02    1.3855452E-04
  2.1380000E-02    1.3836054E-04
  2.1415001E-02    1.3799443E-04
  2.1450000E-02    1.3745566E-04
  2.1485001E-02    1.3674187E-04
  2.1520000E-02    1.3585096E-04
  2.1555001E-02    1.3478466E-04
  2.1590000E-02    1.3354387E-04
  2.1624999E-02    1.3212710E-04
  2.1660000E-02    1.3053558E-04
  2.1694999E-02    1.2877282E-04
  2.1730000E-02    1.2684085E-04
  2.1764999E-02    1.2474293E-04
  2.1800000E-02    1.2248382E-04
  2.1834999E-02    1.2006632E-04
  2.1870000E-02    1.1749530E-04
  2.1904999E-02    1.1477673E-04
  2.1940000E-02    1.1191521E-04
  2.1974999E-02    1.0891951E-04
  2.2010000E-02    1.0579835E-04
  2.2045000E-02    1.0255407E-04
  2.2080000E-02    9.9195619E-05
  2.2115000E-02    9.5737167E-05
  2.2150001E-02    9.2182854E-05
  2.2185000E-02    8.8538902E-05
  2.2220001E-02    8.4821106E-05
  2.2255000E-02    8.1038052E-05
  2.2290001E-02    7.7194898E-05
  2.2325000E-02    7.3306372E-05
  2.2360001E-02    6.9384601E-05
  2.2395000E-02    6.5438267E-05
  2.2430001E-02    6.1480918E-05
  2.2465000E-02    5.7518981E-05
  2.2500001E-02    5.3561966E-05
  2.2535000E-02    4.9628303E-05
  2.2569999E-02    4.5724650E-05
  2.2605000E-02    4.1858377E-05
  2.2639999E-02    3.8048373E-05
  2.2675000E-02    3.4301756E-05
  2.2709999E-02    3.0621279E-05
  2.2745000E-02    2.7024777E-05
  2.2779999E-02    2.3522261E-05
  2.2815000E-02    2.0115969E-05
  2.2849999E-02    1.6820584E-05
  2.2885000E-02    1.3645954E-05
  2.2919999E-02    1.0591101E-05
  2.2955000E-02    7.6665137E-06
  2.2990000E-02    4.8827528E-06
  2.3025000E-02    2.2389888E-06
  2.3060000E-02   -2.5563506E-07
  2.3095001E-02   -2.5915460E-06
  2.3130000E-02   -4.7731696E-06
  2.3165001E-02   -6.7985266E-06
  2.3200000E-02   -8.6585023E-06
  2.3235001E-02   -1.0355534E-05
  2.3270000E-02   -1.1891731E-05
  2.3305001E-02   -1.3260818E-05
  2.3340000E-02   -1.4463558E-05
  2.3375001E-02   -1.5505571E-05
  2.3410000E-02   -1.6387639E-05
  2.3445001E-02   -1.7111059E-05
  2.3480000E-02   -1.7680195E-05
  2.3514999E-02   -1.8101338E-05
  2.3550000E-02   -1.8379360E-05
  2.3584999E-02   -1.8515775E-05
  2.3620000E-02   -1.8516233E-05
  2.3654999E-02   -1.8392151E-05
  2.3690000E-02   -1.8148321E-05
  2.3724999E-02   -1.7788405E-05
  2.3760000E-02   -1.7325836E-05
  2.3794999E-02   -1.6769676E-05
  2.3830000E-02   -1.6121556E-05
  2.3864999E-02   -1.5393216E-05
  2.3900000E-02   -1.4598953E-05
  2.3934999E-02   -1.3741361E-05
  2.3970000E-02   -1.2827612E-05
  2.4005000E-02   -1.1874577E-05
  2.4040001E-02   -1.0890397E-05
  2.4075000E-02   -9.8779328E-06
  2.4110001E-02   -8.8489915E-06
  2.4145000E-02   -7.8162893E-06
  2.4180001E-02   -6.7857522E-06
  2.4215000E-02   -5.7637553E-06
  2.4250001E-02   -4.7589774E-06
  2.4285000E-02   -3.7807865E-06
  2.4320001E-02   -2.8367435E-06
  2.4355000E-02   -1.9306481E-06
  2.4390001E-02   -1.0697958E-06
  2.4425000E-02   -2.6414619E-07
  2.4460001E-02    4.8481621E-07
  2.4495000E-02    1.1767590E-06
  2.4529999E-02    1.8014227E-06
  2.4565000E-02    2.3543778E-06
  2.4599999E-02    2.8390332E-06
  2.4635000E-02    3.2505573E-06
  2.4669999E-02    3.5848618E-06
  2.4705000E-02    3.8452381E-06
  2.4739999E-02    4.0288874E-06
  2.4775000E-02    4.1334347E-06
  2.4809999E-02    4.1644666E-06
  2.4845000E-02    4.1220992E-06
  2.4879999E-02    4.0062891E-06
  2.4915000E-02    3.8240119E-06
  2.4950000E-02    3.5765190E-06
  2.4985000E-02    3.2655209E-06
  2.5020000E-02    2.8994968E-06
  2.5055001E-02    2.4776557E-06
  2.5090000E-02    2.0009284E-06
  2.5125001E-02    1.4850684E-06
  2.5160000E-02    9.3357221E-07
  2.5195001E-02    3.4258278E-07
  2.5230000E-02   -2.7330688E-07
  2.5265001E-02   -9.0609728E-07
  2.5300000E-02   -1.5614329E-06
  2.5335001E-02   -2.2269378E-06
  2.5370000E-02   -2.8906882E-06
  2.5405001E-02   -3.5588357E-06
  2.5440000E-02   -4.2212969E-06
  2.5474999E-02   -4.8628494E-06
  2.5510000E-02   -5.4913276E-06
  2.5544999E-02   -6.1033325E-06
  2.5580000E-02   -6.6793477E-06
  2.5614999E-02   -7.2224898E-06
  2.5650000E-02   -7.7380801E-06
  2.5684999E-02   -8.2112101E-06
  2.5720000E-02   -8.6380460E-06
  2.5754999E-02   -9.0244466E-06
  2.5790000E-02   -9.3627023E-06
  2.5824999E-02   -9.6480853E-06
  2.5860000E-02   -9.8842565E-06
  2.5895000E-02   -1.0069402E-05
  2.5930000E-02   -1.0203374E-05
  2.5965000E-02   -1.0286942E-05
  2.6000001E-02   -1.0315040E-05
  2.6035000E-02   -1.0291410E-05
  2.6070001E-02   -1.0224152E-05
  2.6105000E-02   -1.0109407E-05
  2.6140001E-02   -9.9469798E-06
  2.6175000E-02   -9.7460625E-06
  2.6210001E-02   -9.5067417E-06
  2.6245000E-02   -9.2276787E-06
  2.6280001E-02   -8.9171526E-06
  2.6315000E-02   -8.5795546E-06
  2.6350001E-02   -8.2160395E-06
  2.6385000E-02   -7.8338808E-06
  2.6419999E-02   -7.4377617E-06
  2.6455000E-02   -7.0288606E-06
  2.6489999E-02   -6.6133084E-06
  2.6525000E-02   -6.1953501E-06
  2.6559999E-02   -5.7770035E-06
  2.6595000E-02   -5.3657877E-06
  2.6629999E-02   -4.9660848E-06
  2.6665000E-02   -4.5775582E-06
  2.6699999E-02   -4.2083720E-06
  2.6735000E-02   -3.8666180E-06
  2.6769999E-02   -3.5476176E-06
  2.6805000E-02   -3.2506186E-06
  2.6839999E-02   -2.9855967E-06
  2.6875000E-02   -2.7559138E-06
  2.6910000E-02   -2.5593220E-06
  2.6945001E-02   -2.3998386E-06
  2.6980000E-02   -2.2801541E-06