 -4.8000002E-03    1.0000000E-24
 -4.7650002E-03    1.0000002E-24
 -4.7300002E-03    1.0000001E-24
 -4.6950001E-03    1.0000001E-24
 -4.6600001E-03    1.0000002E-24
 -4.6250001E-03    1.0000000E-24
 -4.5900000E-03    1.0000000E-24
 -4.5550000E-03    1.0000002E-24
 -4.5200000E-03    1.0000001E-24
 -4.4849999E-03    9.9999972E-25
 -4.4499999E-03    1.0000001E-24
 -4.4149999E-03    1.0000005E-24
 -4.3799998E-03    1.0000002E-24
 -4.3449998E-03    9.9999982E-25
 -4.3100002E-03    1.0000001E-24
 -4.2750002E-03    1.0000005E-24
 -4.2400002E-03    1.0000005E-24
 -4.2050001E-03    1.0000000E-24
 -4.1700001E-03    9.9999963E-25
 -4.1350001E-03    1.0000000E-24
 -4.1000000E-03    1.0000005E-24
 -4.0650000E-03    1.0000000E-24
 -4.0300000E-03    9.9999963E-25
 -3.9949999E-03    1.0000000E-24
 -3.9599999E-03    1.0000002E-24
 -3.9249999E-03    1.0000001E-24
 -3.8900001E-03    1.0000002E-24
 -3.8550000E-03    1.0000003E-24
 -3.8200000E-03    1.0000000E-24
 -3.7849999E-03    1.0000000E-24
 -3.7499999E-03    1.0000003E-24
 -3.7150001E-03    9.9999982E-25
 -3.6800001E-03    9.9999982E-25
 -3.6450000E-03    1.0000003E-24
 -3.6100000E-03    1.0000005E-24
 -3.5750000E-03    9.9999992E-25
 -3.5399999E-03    9.9999972E-25
 -3.5049999E-03    1.0000002E-24
 -3.4700001E-03    1.0000006E-24
 -3.4350001E-03    1.0000000E-24
 -3.4000000E-03    9.9999992E-25
 -3.3650000E-03    9.9999992E-25
 -3.3300000E-03    9.9999963E-25
 -3.2949999E-03    1.0000001E-24
 -3.2599999E-03    1.0000008E-24
 -3.2250001E-03    1.0000003E-24
 -3.1900001E-03    9.9999943E-25
 -3.1550000E-03    9.9999992E-25
 -3.1200000E-03    1.0000006E-24
 -3.0850000E-03    1.0000000E-24
 -3.0499999E-03    9.9999953E-25
 -3.0149999E-03    1.0000007E-24
 -2.9800001E-03    1.0000011E-24
 -2.9450001E-03    9.9999943E-25
 -2.9100000E-03    9.9999893E-25
 -2.8750000E-03    1.0000003E-24
 -2.8400000E-03    1.0000005E-24
 -2.8049999E-03    9.9999943E-25
 -2.7699999E-03    9.9999992E-25
 -2.7350001E-03    1.0000006E-24
 -2.7000001E-03    1.0000002E-24
 -2.6650000E-03    1.0000003E-24
 -2.6300000E-03    1.0000007E-24
 -2.5950000E-03    9.9999982E-25
 -2.5599999E-03    9.9999963E-25
 -2.5249999E-03    1.0000007E-24
 -2.4900001E-03    1.0000005E-24
 -2.4550001E-03    9.9999923E-25
 -2.4200000E-03    9.9999972E-25
 -2.3850000E-03    1.0000008E-24
 -2.3500000E-03    1.0000002E-24
 -2.3149999E-03    9.9999933E-25
 -2.2799999E-03    1.0000002E-24
 -2.2450001E-03    1.0000005E-24
 -2.2100001E-03    9.9999923E-25
 -2.1750000E-03    9.9999923E-25
 -2.1400000E-03    1.0000009E-24
 -2.1050000E-03    1.0000012E-24
 -2.0699999E-03    9.9999972E-25
 -2.0349999E-03    9.9999953E-25
 -2.0000001E-03    1.0000004E-24
 -1.9650001E-03    1.0000000E-24
 -1.9300000E-03    9.9999972E-25
 -1.8950000E-03    1.0000009E-24
 -1.8600000E-03    1.0000008E-24
 -1.8250000E-03    9.9999963E-25
 -1.7900000E-03    9.9999953E-25
 -1.7550000E-03    9.9999982E-25
 -1.7199999E-03    9.9999963E-25
 -1.6850000E-03    1.0000005E-24
 -1.6500000E-03    1.0000010E-24
 -1.6150000E-03    9.9999953E-25
 -1.5800000E-03    9.9999943E-25
 -1.5450000E-03    1.0000006E-24
 -1.5100000E-03    1.0000001E-24
 -1.4750001E-03    9.9999903E-25
 -1.4400000E-03    1.0000001E-24
 -1.4050000E-03    1.0000011E-24
 -1.3700000E-03    1.0000001E-24
 -1.3350000E-03    9.9999963E-25
 -1.3000000E-03    1.0000000E-24
 -1.2650000E-03    1.0000001E-24
 -1.2300001E-03    1.0000001E-24
 -1.1950000E-03    1.0000000E-24
 -1.1600000E-03    9.9999992E-25
 -1.1250000E-03    1.0000000E-24
 -1.0900000E-03    1.0000005E-24
 -1.0550000E-03    1.0000003E-24
 -1.0200000E-03    9.9999943E-25
 -9.8500005E-04    9.9999963E-25
 -9.5000002E-04    1.0000008E-24
 -9.1499998E-04    1.0000008E-24
 -8.8000001E-04    1.0000003E-24
 -8.4499997E-04    1.0000001E-24
 -8.1000000E-04    9.9999972E-25
 -7.7500002E-04    9.9999963E-25
 -7.3999999E-04    1.0000006E-24
 -7.0500001E-04    1.0000009E-24
 -6.6999998E-04    9.9999933E-25
 -6.3500000E-04    9.9999923E-25
 -6.0000003E-04    1.0000008E-24
 -5.6499999E-04    1.0000004E-24
 -5.3000002E-04    9.9999884E-25
 -4.9499999E-04    9.9999982E-25
 -4.6000001E-04    1.0000017E-24
 -4.2500001E-04    1.0000002E-24
 -3.9000000E-04    9.9999854E-25
 -3.5500000E-04    1.0000003E-24
 -3.1999999E-04    1.0000014E-24
 -2.8499999E-04    9.9999963E-25
 -2.5000001E-04    9.9999884E-25
 -2.1499999E-04    1.0000009E-24
 -1.8000000E-04    1.0000018E-24
 -1.4500000E-04    9.9999963E-25
 -1.1000000E-04    9.9999893E-25
 -7.5000004E-05    1.0000002E-24
 -3.9999999E-05    1.0000002E-24
 -4.9999999E-06    9.9999884E-25
  2.9999999E-05    1.0000001E-24
  6.5000000E-05    1.0000017E-24
  9.9999997E-05    1.0000002E-24
  1.3499999E-04    9.9999874E-25
  1.7000000E-04    1.0000004E-24
  2.0500000E-04    1.0000016E-24
  2.3999999E-04    9.9999982E-25
  2.7500000E-04    9.9999903E-25
  3.1000000E-04    1.0000005E-24
  3.4500001E-04    1.0000004E-24
  3.8000001E-04    9.9999943E-25
  4.1499999E-04    1.0000001E-24
  4.4999999E-04    1.0000002E-24
  4.8500000E-04    9.9999893E-25
  5.2000000E-04    9.9999953E-25
  5.5499998E-04    1.0000012E-24
  5.9000001E-04    1.0000010E-24
  6.2499999E-04    1.0000001E-24
  6.6000002E-04    1.0000002E-24
  6.9500000E-04    1.0000005E-24
  7.3000003E-04    9.9999982E-25
  7.6500000E-04    9.9999933E-25
  7.9999998E-04    1.0000006E-24
  8.3500001E-04    1.0000010E-24
  8.6999999E-04    9.9999933E-25
  9.0500002E-04    9.9999834E-25
  9.4000000E-04    9.9999992E-25
  9.7499997E-04    1.0000011E-24
  1.0100000E-03    1.0000001E-24
  1.0450000E-03    9.9999953E-25
  1.0800000E-03    1.0000006E-24
  1.1150000E-03    1.0000008E-24
  1.1500000E-03    9.9999943E-25
  1.1849999E-03    9.9999953E-25
  1.2200000E-03    1.0000008E-24
  1.2550000E-03    1.0000000E-24
  1.2900000E-03    9.9999913E-25
  1.3250000E-03    1.0000009E-24
  1.3600000E-03    1.0000012E-24
  1.3950000E-03    9.9999923E-25
  1.4299999E-03    9.9999913E-25
  1.4650000E-03    1.0000012E-24
  1.5000000E-03    1.0000006E-24
  1.5350000E-03    9.9999874E-25
  1.5700000E-03    1.0000005E-24
  1.6050000E-03    1.0000023E-24
  1.6400000E-03    9.9999982E-25
  1.6749999E-03    9.9999824E-25
  1.7100000E-03    1.0000006E-24
  1.7450000E-03    1.0000011E-24
  1.7800000E-03    9.9999884E-25
  1.8150000E-03    9.9999963E-25
  1.8500000E-03    1.0000009E-24
  1.8850000E-03    9.9999903E-25
  1.9200000E-03    9.9999844E-25
  1.9550000E-03    1.0000008E-24
  1.9900000E-03    1.0000011E-24
  2.0250001E-03    1.0000001E-24
  2.0600001E-03    1.0000008E-24
  2.0949999E-03    1.0000011E-24
  2.1299999E-03    9.9999992E-25
  2.1650000E-03    9.9999933E-25
  2.2000000E-03    1.0000002E-24
  2.2350000E-03    1.0000005E-24
  2.2700001E-03    1.0000000E-24
  2.3050001E-03    1.0000001E-24
  2.3399999E-03    1.0000003E-24
  2.3749999E-03    9.9999943E-25
  2.4100000E-03    9.9999913E-25
  2.4450000E-03    9.9999992E-25
  2.4800000E-03    1.0000006E-24
  2.5150001E-03    1.0000005E-24
  2.5500001E-03    1.0000005E-24
  2.5849999E-03    1.0000000E-24
  2.6199999E-03    9.9999903E-25
  2.6550000E-03    9.9999903E-25
  2.6900000E-03    1.0000006E-24
  2.7250000E-03    1.0000005E-24
  2.7600001E-03    9.9999943E-25
  2.7950001E-03    1.0000012E-24
  2.8299999E-03    1.0000025E-24
  2.8649999E-03    1.0000001E-24
  2.9000000E-03    9.9999755E-25
  2.9350000E-03    9.9999943E-25
  2.9700000E-03    1.0000014E-24
  3.0050001E-03    9.9999943E-25
  3.0400001E-03    9.9999874E-25
  3.0749999E-03    1.0000009E-24
  3.1099999E-03    1.0000009E-24
  3.1450000E-03    9.9999913E-25
  3.1800000E-03    9.9999953E-25
  3.2150000E-03    1.0000005E-24
  3.2500001E-03    1.0000004E-24
  3.2850001E-03    1.0000010E-24
  3.3199999E-03    1.0000016E-24
  3.3549999E-03    1.0000003E-24
  3.3900000E-03    9.9999874E-25
  3.4250000E-03    1.0000000E-24
  3.4600000E-03    1.0000010E-24
  3.4950001E-03    9.9999963E-25
  3.5300001E-03    9.9999963E-25
  3.5649999E-03    1.0000009E-24
  3.5999999E-03    1.0000001E-24
  3.6350000E-03    9.9999884E-25
  3.6700000E-03    1.0000001E-24
  3.7050000E-03    1.0000012E-24
  3.7400001E-03    1.0000004E-24
  3.7750001E-03    9.9999982E-25
  3.8099999E-03    1.0000001E-24
  3.8449999E-03    1.0000002E-24
  3.8800000E-03    1.0000006E-24
  3.9149998E-03    1.0000002E-24
  3.9499998E-03    9.9999953E-25
  3.9849998E-03    9.9999982E-25
  4.0199999E-03    1.0000017E-24
  4.0549999E-03    1.0000005E-24
  4.0899999E-03    9.9999953E-25
  4.1250000E-03    1.0000013E-24
  4.1600000E-03    9.9999963E-25
  4.1950000E-03    9.9998631E-25
  4.2300001E-03    9.9999371E-25
  4.2650001E-03    1.0000242E-24
  4.3000001E-03    1.0000093E-24
  4.3350002E-03    1.0000222E-24
  4.3700002E-03    9.9999105E-25
  4.4049998E-03    9.9994805E-25
  4.4399998E-03    9.9997123E-25
  4.4749998E-03    1.0000508E-24
  4.5099999E-03    9.9994371E-25
  4.5449999E-03    9.9990190E-25
  4.5799999E-03    1.0001008E-24
  4.6150000E-03    9.9992932E-25
  4.6500000E-03    9.9987291E-25
  4.6850001E-03    1.0002713E-24
  4.7200001E-03    1.0003607E-24
  4.7550001E-03    9.9969808E-25
  4.7900002E-03    9.9942662E-25
  4.8250002E-03    9.9988130E-25
  4.8600002E-03    9.9953232E-25
  4.8949998E-03    1.0000574E-24
  4.9299998E-03    9.9967787E-25
  4.9649999E-03    9.9922270E-25
  4.9999999E-03    9.9809029E-25
  5.0349999E-03    9.9796831E-25
  5.0700000E-03    1.0002751E-24
  5.1050000E-03    9.9905033E-25
  5.1400000E-03    9.9390084E-25
  5.1750001E-03    9.9911206E-25
  5.2100001E-03    1.0089344E-24
  5.2450001E-03    1.0089093E-24
  5.2800002E-03    1.0016716E-24
  5.3150002E-03    9.8909648E-25
  5.3500002E-03    9.9059640E-25
  5.3849998E-03    1.0188021E-24
  5.4199998E-03    1.0102593E-24
  5.4549999E-03    1.0147421E-24
  5.4899999E-03    9.7699062E-25
  5.5249999E-03    9.7885894E-25
  5.5600000E-03    1.0243122E-24
  5.5950000E-03    1.0492515E-24
  5.6300000E-03    9.9782168E-25
  5.6650001E-03    9.6982136E-25
  5.7000001E-03    1.0900404E-24
  5.7350001E-03    9.9291920E-25
  5.7700002E-03    8.0125850E-25
  5.8050002E-03    1.0681180E-24
  5.8400002E-03    1.2913247E-24
  5.8749998E-03    1.0410573E-24
  5.9099998E-03    4.8992216E-25
  5.9449999E-03    8.2546247E-25
  5.9799999E-03    1.2233940E-24
  6.0149999E-03    1.2175784E-24
  6.0500000E-03    9.4359903E-25
  6.0850000E-03    6.8939491E-25
  6.1200000E-03    3.4050821E-25
  6.1550001E-03    2.4688242E-24
  6.1900001E-03    1.8150047E-24
  6.2250001E-03   -3.9753684E-25
  6.2600002E-03   -2.8468548E-26
  6.2950002E-03   -2.2897938E-25
  6.3299998E-03    3.9179017E-24
  6.3649998E-03    4.4731695E-24
  6.3999998E-03    1.3642985E-24
  6.4349999E-03   -1.2569391E-24
  6.4699999E-03    5.6048094E-24
  6.5049999E-03    6.6025642E-24
  6.5400000E-03   -1.1421396E-23
  6.5750000E-03   -1.5665350E-23
  6.6100000E-03    6.6850108E-24
  6.6450001E-03    1.5140926E-23
  6.6800001E-03   -2.5281416E-23
  6.7150001E-03   -1.1636949E-23
  6.7500002E-03    4.2579694E-24
  6.7850002E-03   -1.3852153E-23
  6.8199998E-03    2.2894473E-24
  6.8549998E-03    2.1658394E-23
  6.8899998E-03    4.1662398E-23
  6.9249999E-03   -7.9806920E-24
  6.9599999E-03   -7.7963975E-23
  6.9949999E-03    5.2914805E-23
  7.0300000E-03    1.0785291E-22
  7.0650000E-03    9.6411633E-23
  7.1000000E-03   -1.1578806E-23
  7.1350001E-03   -4.0768209E-23
  7.1700001E-03   -2.7585305E-22
  7.2050001E-03   -3.1570473E-22
  7.2400002E-03    3.9240292E-22
  7.2750002E-03    5.0861692E-22
  7.3099998E-03   -6.6859325E-23
  7.3449998E-03   -5.4684853E-22
  7.3799998E-03   -4.4417928E-22
  7.4149999E-03    1.0138642E-23
  7.4499999E-03   -2.1666669E-22
  7.4850000E-03   -8.1065480E-23
  7.5200000E-03    2.8518889E-22
  7.5550000E-03   -6.5253292E-22
  7.5900001E-03   -1.1625255E-22
  7.6250001E-03    9.7997035E-23
  7.6600001E-03    1.9203540E-22
  7.6950002E-03   -2.8794026E-21
  7.7300002E-03   -6.2116281E-22
  7.7650002E-03    4.3421252E-22
  7.7999998E-03   -1.8582358E-21
  7.8349998E-03   -1.4343419E-21
  7.8699999E-03    1.6721849E-21
  7.9049999E-03    8.2922675E-22
  7.9399999E-03   -1.1155621E-21
  7.9750000E-03   -6.4799556E-21
  8.0100000E-03   -3.7783958E-21
  8.0450000E-03    4.2911339E-21
  8.0800001E-03    8.0061697E-21
  8.1150001E-03   -1.9795494E-21
  8.1500001E-03   -9.6618314E-21
  8.1850002E-03   -1.4547930E-21
  8.2200002E-03    1.0561882E-20
  8.2550002E-03   -3.6570927E-21
  8.2900003E-03   -2.3189322E-20
  8.3250003E-03   -2.8857582E-20
  8.3600003E-03    1.4377674E-20
  8.3950004E-03    4.0670448E-20
  8.4300004E-03    5.7836695E-21
  8.4650004E-03   -4.1948694E-20
  8.5000005E-03   -1.8663345E-20
  8.5349996E-03    1.9079396E-20
  8.5699996E-03   -5.2974319E-21
  8.6049996E-03   -7.0094897E-20
  8.6399997E-03   -5.9283789E-20
  8.6749997E-03    1.6232240E-20
  8.7099997E-03    1.7397790E-19
  8.7449998E-03    7.0014680E-20
  8.7799998E-03   -1.8714814E-19
  8.8149998E-03   -8.8497643E-20
  8.8499999E-03    2.5243727E-19
  8.8849999E-03    1.1289744E-19
  8.9199999E-03   -3.5333819E-19
  8.9550000E-03   -2.3071817E-19
  8.9900000E-03    2.2815815E-19
  9.0250000E-03    4.3738162E-19
  9.0600001E-03    1.8858238E-19
  9.0950001E-03   -3.5843008E-19
  9.1300001E-03   -4.0686308E-19
  9.1650002E-03    5.5218400E-19
  9.2000002E-03    1.0058485E-18
  9.2350002E-03   -2.9499296E-20
  9.2700003E-03   -1.2642092E-18
  9.3050003E-03   -2.9387202E-19
  9.3400003E-03    1.4923394E-18
  9.3750004E-03    4.0768568E-19
  9.4100004E-03   -2.1611237E-18
  9.4450004E-03   -6.7738875E-19
  9.4799995E-03    2.2504569E-18
  9.5149996E-03    2.2406426E-18
  9.5499996E-03   -2.6221299E-18
  9.5849996E-03   -3.9927628E-18
  9.6199997E-03    1.1726282E-18
  9.6549997E-03    5.9062313E-18
  9.6899997E-03    1.2641514E-18
  9.7249998E-03   -6.5730704E-18
  9.7599998E-03   -2.8085427E-18
  9.7949998E-03    6.6478397E-18
  9.8299999E-03    5.6362449E-18
  9.8649999E-03   -6.7027003E-18
  9.8999999E-03   -8.8363776E-18
  9.9350000E-03    3.7009847E-18
  9.9700000E-03    1.1921999E-17
  1.0005000E-02    6.6891697E-19
  1.0040000E-02   -1.2488588E-17
  1.0075000E-02   -4.2263143E-18
  1.0110000E-02    1.6331659E-17
  1.0145000E-02    1.1242130E-17
  1.0180000E-02   -1.7136065E-17
  1.0215000E-02   -1.9001040E-17
  1.0250000E-02    1.6145303E-17
  1.0285000E-02    3.1554161E-17
  1.0320000E-02   -4.1796655E-18
  1.0355000E-02   -3.9449124E-17
  1.0390000E-02   -1.7353778E-18
  1.0425000E-02    4.8120253E-17
  1.0460000E-02    2.9485895E-17
  1.0495000E-02   -3.5534832E-17
  1.0530000E-02   -3.7161668E-17
  1.0565000E-02    4.8334426E-17
  1.0600000E-02    7.5140088E-17
  1.0635000E-02   -2.7388800E-17
  1.0670000E-02   -8.7483422E-17
  1.0705000E-02    1.3846405E-17
  1.0740000E-02    1.1243630E-16
  1.0775000E-02    2.2313232E-17
  1.0810000E-02   -1.1977946E-16
  1.0845000E-02   -6.2233390E-17
  1.0880000E-02    1.1218573E-16
  1.0915000E-02    1.1992369E-16
  1.0950000E-02   -9.3285088E-17
  1.0985000E-02   -1.9650668E-16
  1.1020000E-02    6.0462502E-17
  1.1055000E-02    2.6365282E-16
  1.1090000E-02    5.1977424E-18
  1.1125000E-02   -3.0039846E-16
  1.1160000E-02   -9.2725967E-17
  1.1195000E-02    3.6079585E-16
  1.1230000E-02    1.9344614E-16
  1.1265000E-02   -4.0111044E-16
  1.1300000E-02   -3.6093114E-16
  1.1335000E-02    3.5903755E-16
  1.1370000E-02    5.6861385E-16
  1.1405000E-02   -2.3250737E-16
  1.1440000E-02   -7.3596612E-16
  1.1475000E-02    2.9734407E-17
  1.1510000E-02    9.3284998E-16
  1.1545000E-02    2.9623844E-16
  1.1580000E-02   -1.0872194E-15
  1.1615000E-02   -7.2912337E-16
  1.1650000E-02    1.1490582E-15
  1.1685000E-02    1.3105331E-15
  1.1720000E-02   -9.1141126E-16
  1.1755000E-02   -1.8386055E-15
  1.1790000E-02    5.0431929E-16
  1.1825000E-02    2.3623020E-15
  1.1860000E-02    2.1516267E-16
  1.1895000E-02   -2.8019890E-15
  1.1930000E-02   -1.2675245E-15
  1.1965000E-02    2.9282048E-15
  1.2000000E-02    2.5229124E-15
  1.2035000E-02   -2.6257835E-15
  1.2070000E-02   -3.9845832E-15
  1.2105000E-02    1.6352532E-15
  1.2140000E-02    5.3171498E-15
  1.2175000E-02   -1.3855978E-16
  1.2210000E-02   -6.4044081E-15
  1.2245000E-02   -2.0527354E-15
  1.2280000E-02    7.0196704E-15
  1.2315000E-02    4.8993245E-15
  1.2350000E-02   -6.5715438E-15
  1.2385000E-02   -8.0124531E-15
  1.2420000E-02    4.8465946E-15
  1.2455000E-02    1.0997523E-14
  1.2490000E-02   -1.8039741E-15
  1.2525000E-02   -1.3309380E-14
  1.2560000E-02   -2.5118646E-15
  1.2595000E-02    1.4487567E-14
  1.2630000E-02    7.8414676E-15
  1.2665000E-02   -1.3913561E-14
  1.2700000E-02   -1.3600185E-14
  1.2735000E-02    1.1190536E-14
  1.2770000E-02    1.9116975E-14
  1.2805000E-02   -6.2403607E-15
  1.2840000E-02   -2.3640427E-14
  1.2875000E-02   -9.3598612E-16
  1.2910000E-02    2.6163850E-14
  1.2945000E-02    9.6806032E-15
  1.2980000E-02   -2.6087248E-14
  1.3015000E-02   -1.9385230E-14
  1.3050000E-02    2.2802949E-14
  1.3085000E-02    2.8934263E-14
  1.3120000E-02   -1.6316411E-14
  1.3155000E-02   -3.7361573E-14
  1.3190000E-02    6.7475606E-15
  1.3225000E-02    4.3733073E-14
  1.3260000E-02    5.3853008E-15
  1.3295000E-02   -4.7348142E-14
  1.3330000E-02   -1.9557560E-14
  1.3365000E-02    4.7784903E-14
  1.3400000E-02    3.5475915E-14
  1.3435000E-02   -4.4340013E-14
  1.3470000E-02   -5.2584425E-14
  1.3505000E-02    3.6417541E-14
  1.3540000E-02    7.0322891E-14
  1.3575000E-02   -2.3171215E-14
  1.3610000E-02   -8.7886323E-14
  1.3645000E-02    3.3031005E-15
  1.3680000E-02    1.0379282E-13
  1.3715000E-02    2.4568335E-14
  1.3750000E-02   -1.1550036E-13
  1.3785000E-02   -6.1530215E-14
  1.3820000E-02    1.1914711E-13
  1.3855000E-02    1.0751234E-13
  1.3890000E-02   -1.0923909E-13
  1.3925000E-02   -1.5969740E-13
  1.3960000E-02    8.0526013E-14
  1.3995000E-02    2.1339713E-13
  1.4030000E-02   -2.7347553E-14
  1.4065000E-02   -2.5937130E-13
  1.4100000E-02   -5.2587349E-14
  1.4135000E-02    2.8585535E-13
  1.4170000E-02    1.5756489E-13
  1.4205000E-02   -2.7895215E-13
  1.4240000E-02   -2.7941243E-13
  1.4275000E-02    2.2560889E-13
  1.4310000E-02    4.0315367E-13
  1.4345000E-02   -1.1673529E-13
  1.4380000E-02   -5.0735636E-13
  1.4415000E-02   -4.9548409E-14
  1.4450000E-02    5.6650913E-13
  1.4485000E-02    2.6466760E-13
  1.4520000E-02   -5.5438222E-13
  1.4555000E-02   -5.0742863E-13
  1.4590000E-02    4.5043317E-13
  1.4625000E-02    7.4623288E-13
  1.4660000E-02   -2.4380880E-13
  1.4695000E-02   -9.4064481E-13
  1.4730000E-02   -6.0515402E-14
  1.4765000E-02    1.0486466E-12
  1.4800000E-02    4.4156890E-13
  1.4835000E-02   -1.0305208E-12
  1.4870000E-02   -8.5932151E-13
  1.4905000E-02    8.5962108E-13
  1.4940000E-02    1.2606485E-12
  1.4975000E-02   -5.2622013E-13
  1.5010000E-02   -1.5835036E-12
  1.5045000E-02    4.3376960E-14
  1.5080000E-02    1.7657913E-12
  1.5115000E-02    5.5193155E-13
  1.5150000E-02   -1.7535716E-12
  1.5185000E-02   -1.2003841E-12
  1.5220000E-02    1.5096572E-12
  1.5255000E-02    1.8246492E-12
  1.5290000E-02   -1.0208251E-12
  1.5325000E-02   -2.3363321E-12
  1.5360000E-02    3.0330713E-13
  1.5395000E-02    2.6449628E-12
  1.5430000E-02    5.9477380E-13
  1.5465000E-02   -2.6671072E-12
  1.5500000E-02   -1.5916021E-12
  1.5535000E-02    2.3389556E-12
  1.5570000E-02    2.5754106E-12
  1.5605000E-02   -1.6275834E-12
  1.5640000E-02   -3.4103560E-12
  1.5675001E-02    5.4298102E-13
  1.5710000E-02    3.9477193E-12
  1.5745001E-02    8.5198737E-13
  1.5780000E-02   -4.0410075E-12
  1.5814999E-02   -2.4325643E-12
  1.5850000E-02    3.5701925E-12
  1.5884999E-02    4.0129922E-12
  1.5920000E-02   -2.4675286E-12
  1.5954999E-02   -5.3553529E-12
  1.5990000E-02    7.4907745E-13
  1.6024999E-02    6.1955419E-12
  1.6060000E-02    1.4614782E-12
  1.6094999E-02   -6.2838337E-12
  1.6130000E-02   -3.9215658E-12
  1.6164999E-02    5.4391886E-12
  1.6200000E-02    6.2828688E-12
  1.6235000E-02   -3.6048575E-12
  1.6270000E-02   -8.1310896E-12
  1.6305000E-02    8.9453352E-13
  1.6340001E-02    9.0545843E-12
  1.6375000E-02    2.3876261E-12
  1.6410001E-02   -8.7322545E-12
  1.6445000E-02   -5.7681780E-12
  1.6480001E-02    7.0198725E-12
  1.6515000E-02    8.6670870E-12
  1.6550001E-02   -4.0203405E-12
  1.6585000E-02   -1.0508938E-11
  1.6620001E-02    9.8207988E-14
  1.6655000E-02    1.0847013E-11
  1.6690001E-02    4.1684690E-12
  1.6725000E-02   -9.4673106E-12
  1.6759999E-02   -8.0898248E-12
  1.6795000E-02    6.4401822E-12
  1.6829999E-02    1.0982847E-11
  1.6865000E-02   -2.1265702E-12
  1.6899999E-02   -1.2297108E-11
  1.6935000E-02   -2.8688124E-12
  1.6969999E-02    1.1730564E-11
  1.7005000E-02    7.8112525E-12
  1.7039999E-02   -9.2848351E-12
  1.7075000E-02   -1.1975450E-11
  1.7109999E-02    5.2429406E-12
  1.7145000E-02    1.4751199E-11
  1.7180000E-02   -1.1176453E-13
  1.7215000E-02   -1.5716314E-11
  1.7250000E-02   -5.4369261E-12
  1.7285001E-02    1.4701636E-11
  1.7320000E-02    1.0669556E-11
  1.7355001E-02   -1.1827354E-11
  1.7390000E-02   -1.4911740E-11
  1.7425001E-02    7.4413965E-12
  1.7460000E-02    1.7602118E-11
  1.7495001E-02   -2.0941239E-12
  1.7530000E-02   -1.8373502E-11
  1.7565001E-02   -3.5021801E-12
  1.7600000E-02    1.7138773E-11
  1.7635001E-02    8.6202495E-12
  1.7670000E-02   -1.4110163E-11
  1.7704999E-02   -1.2642797E-11
  1.7740000E-02    9.6938733E-12
  1.7774999E-02    1.5136467E-11
  1.7810000E-02   -4.3926291E-12
  1.7844999E-02   -1.5814149E-11
  1.7880000E-02   -1.2181559E-12
  1.7914999E-02    1.4585074E-11
  1.7950000E-02    6.5901269E-12
  1.7984999E-02   -1.1658768E-11
  1.8020000E-02   -1.1378161E-11
  1.8054999E-02    6.9767473E-12
  1.8090000E-02    1.5081937E-11
  1.8124999E-02   -6.0562032E-13
  1.8160000E-02   -1.6851824E-11
  1.8195000E-02   -6.6003752E-12
  1.8230001E-02    1.6380156E-11
  1.8265000E-02    1.4115758E-11
  1.8300001E-02   -1.3396686E-11
  1.8335000E-02   -2.1488710E-11
  1.8370001E-02    7.6717192E-12
  1.8405000E-02    2.6871415E-11
  1.8440001E-02   -5.6471592E-13
  1.8475000E-02   -3.0220392E-11
  1.8510001E-02   -6.9055382E-12
  1.8545000E-02    3.1050471E-11
  1.8580001E-02    1.3285577E-11
  1.8615000E-02   -3.0646232E-11
  1.8650001E-02   -1.8020351E-11
  1.8685000E-02    3.0170737E-11
  1.8719999E-02    2.2411104E-11
  1.8755000E-02   -2.9519671E-11
  1.8789999E-02   -2.5428125E-11
  1.8825000E-02    2.9530493E-11
  1.8859999E-02    2.7403876E-11
  1.8895000E-02   -3.2064986E-11
  1.8929999E-02   -3.2239593E-11
  1.8965000E-02    2.9048371E-11
  1.8999999E-02    3.6218410E-11
  1.9035000E-02   -2.3164125E-11
  1.9069999E-02   -3.9154627E-11
  1.9105000E-02    1.5227836E-11
  1.9140000E-02    4.1954402E-11
  1.9175000E-02   -1.4228095E-12
  1.9210000E-02   -3.6633162E-11
  1.9245001E-02   -1.0291737E-11
  1.9280000E-02    2.2706385E-11
  1.9315001E-02    1.8907745E-11
  1.9350000E-02   -4.1604578E-13
  1.9385001E-02   -2.4583927E-11
  1.9420000E-02   -3.0221665E-11
  1.9455001E-02    1.3995405E-11
  1.9490000E-02    5.3374416E-11
  1.9525001E-02    2.4613818E-12
  1.9560000E-02   -6.9162655E-11
  1.9595001E-02   -1.2461957E-11
  1.9630000E-02    8.2585903E-11
  1.9664999E-02    3.2442424E-11
  1.9700000E-02   -1.0067865E-10
  1.9734999E-02   -5.3373663E-11
  1.9770000E-02    1.1193534E-10
  1.9804999E-02    6.6547372E-11
  1.9840000E-02   -9.4067323E-11
  1.9874999E-02   -8.1156262E-11
  1.9910000E-02    5.3059373E-11
  1.9944999E-02    6.6013528E-11
  1.9980000E-02   -2.4246495E-11
  2.0014999E-02   -8.6423445E-11
  2.0050000E-02    9.7916922E-13
  2.0085000E-02    1.1291555E-10
  2.0120000E-02    1.5751385E-11
  2.0155000E-02   -1.0033869E-10
  2.0190001E-02    2.8210373E-11
  2.0225000E-02    6.3582112E-11
  2.0260001E-02   -9.4100040E-11
  2.0295000E-02   -6.0876845E-11
  2.0330001E-02    5.5962991E-11
  2.0365000E-02    3.3793374E-11
  2.0400001E-02   -6.7830429E-11
  2.0435000E-02    1.2404173E-11
  2.0470001E-02    3.5152926E-11
  2.0505000E-02   -5.0180724E-11
  2.0540001E-02    2.6089315E-12
  2.0575000E-02    8.8188019E-11
  2.0609999E-02    5.3801252E-11
  2.0645000E-02    1.9963678E-11
  2.0679999E-02   -4.1360066E-12
  2.0715000E-02   -9.1426831E-11
  2.0749999E-02   -1.4001361E-10
  2.0785000E-02   -7.0189903E-11
  2.0819999E-02    2.9594147E-11
  2.0855000E-02    9.7243588E-11
  2.0889999E-02    1.4559970E-10
  2.0925000E-02   -1.5416823E-12
  2.0959999E-02   -1.8000500E-10
  2.0995000E-02    1.3309899E-10
  2.1029999E-02    3.1116426E-10
  2.1065000E-02   -2.4776731E-10
  2.1100000E-02   -4.0042036E-10
  2.1135001E-02    6.3760941E-11
  2.1170000E-02   -3.7574645E-11
  2.1205001E-02   -2.7241395E-10
  2.1240000E-02   -7.1492090E-11
  2.1275001E-02    4.3411302E-10
  2.1310000E-02    6.7819950E-10
  2.1345001E-02   -1.9829120E-10
  2.1380000E-02   -6.5623024E-10
  2.1415001E-02    2.7125699E-10
  2.1450000E-02    7.1189715E-10
  2.1485001E-02   -9.9880396E-11
  2.1520000E-02   -3.2134825E-10
  2.1555001E-02   -1.3943890E-11
  2.1590000E-02   -4.9299770E-10
  2.1624999E-02   -4.1172185E-10
  2.1660000E-02    6.0604993E-10
  2.1694999E-02    7.4653539E-10
  2.1730000E-02   -2.5257824E-10
  2.1764999E-02   -2.0324543E-10
  2.1800000E-02    7.1167622E-10
  2.1834999E-02    1.5850812E-10
  2.1870000E-02   -9.9501118E-10
  2.1904999E-02   -4.5788141E-11
  2.1940000E-02    9.9650410E-10
  2.1974999E-02   -8.6364971E-10
  2.2010000E-02   -1.4317516E-09
  2.2045000E-02    1.1518069E-09
  2.2080000E-02    1.2534092E-09
  2.2115000E-02   -1.1534795E-09
  2.2150001E-02   -1.3643089E-10
  2.2185000E-02    1.1905519E-09
  2.2220001E-02   -6.3196909E-10
  2.2255000E-02   -6.2713679E-10
  2.2290001E-02    1.6539088E-09
  2.2325000E-02    4.7094473E-10
  2.2360001E-02   -1.9633843E-09
  2.2395000E-02   -5.4909305E-10
  2.2430001E-02    1.0241896E-09
  2.2465000E-02    2.6381250E-10
  2.2500001E-02   -7.5811475E-11
  2.2535000E-02    1.0688232E-10
  2.2569999E-02   -1.6170201E-11
  2.2605000E-02    3.8899436E-10
  2.2639999E-02    4.9065661E-11
  2.2675000E-02   -7.9723933E-10
  2.2709999E-02    1.7314979E-10
  2.2745000E-02    7.9277596E-10
  2.2779999E-02   -7.5878009E-10
  2.2815000E-02   -7.7693779E-10
  2.2849999E-02    1.4920100E-10
  2.2885000E-02   -9.3203290E-10
  2.2919999E-02   -5.0292243E-10
  2.2955000E-02    1.7905664E-09
  2.2990000E-02    1.2187590E-09
  2.3025000E-02   -6.7131822E-10
  2.3060000E-02   -2.7823932E-10
  2.3095001E-02    4.3965329E-10
  2.3130000E-02    8.2679759E-11
  2.3165001E-02   -5.5448190E-10
  2.3200000E-02   -8.7399377E-10
  2.3235001E-02    5.4201066E-10
  2.3270000E-02    1.7314128E-09
  2.3305001E-02   -8.8218009E-11
  2.3340000E-02   -1.6725887E-09
  2.3375001E-02   -5.5216748E-10
  2.3410000E-02    2.4702693E-10
  2.3445001E-02   -3.1490546E-10
  2.3480000E-02    1.1321759E-10
  2.3514999E-02    9.6455099E-10
  2.3550000E-02   -4.5473313E-11
  2.3584999E-02   -8.6400775E-10
  2.3620000E-02    5.3971871E-10
  2.3654999E-02    8.1329771E-10
  2.3690000E-02   -1.1710639E-09
  2.3724999E-02   -4.4927498E-10
  2.3760000E-02    1.8291503E-09
  2.3794999E-02   -6.1495092E-10
  2.3830000E-02   -2.7598350E-09
  2.3864999E-02    6.7037087E-10
  2.3900000E-02    1.7109263E-09
  2.3934999E-02   -1.9474953E-09
  2.3970000E-02   -1.2910794E-09
  2.4005000E-02    2.2141506E-09
  2.4040001E-02    3.1648889E-10
  2.4075000E-02   -1.5625093E-09
  2.4110001E-02    8.5434393E-10
  2.4145000E-02    1.1085872E-09
  2.4180001E-02   -8.8325519E-10
  2.4215000E-02   -1.4541431E-11
  2.4250001E-02    3.6416628E-10
  2.4285000E-02   -2.0330801E-09
  2.4320001E-02   -7.1070011E-10
  2.4355000E-02    2.5005988E-09
  2.4390001E-02    2.5341787E-10
  2.4425000E-02   -1.6363284E-09
  2.4460001E-02    8.5048379E-10
  2.4495000E-02    6.7261759E-11
  2.4529999E-02   -2.2571505E-09
  2.4565000E-02    8.1821722E-10
  2.4599999E-02    2.3836451E-09
  2.4635000E-02   -1.4651064E-09
  2.4669999E-02   -2.6186449E-09
  2.4705000E-02   -3.9659215E-10
  2.4739999E-02    2.0247130E-10
  2.4775000E-02    3.7129480E-10
  2.4809999E-02    6.8812039E-10
  2.4845000E-02    3.8353720E-10
  2.4879999E-02    8.0720608E-10
  2.4915000E-02    1.3489614E-09
  2.4950000E-02    7.5376227E-10
  2.4985000E-02   -2.1315458E-10
  2.5020000E-02   -1.5259778E-09
  2.5055001E-02   -1.6298196E-09
  2.5090000E-02    9.4803387E-10
  2.5125001E-02    1.3827663E-09
  2.5160000E-02   -2.2988769E-09
  2.5195001E-02   -2.2341271E-09
  2.5230000E-02    1.8409754E-09
  2.5265001E-02    1.0552156E-09
  2.5300000E-02   -1.2873815E-09
  2.5335001E-02    1.0046162E-09
  2.5370000E-02    1.9757624E-09
  2.5405001E-02   -9.1306385E-10
  2.5440000E-02   -1.4118763E-09
  2.5474999E-02    2.4588856E-10
  2.5510000E-02    1.3430003E-10
  2.5544999E-02    1.2594145E-10
  2.5580000E-02    6.7197597E-10
  2.5614999E-02   -5.0950927E-10
  2.5650000E-02   -1.3271798E-09
  2.5684999E-02   -1.2073760E-10
  2.5720000E-02    4.2617182E-10
  2.5754999E-02    7.3719260E-11
  2.5790000E-02    2.0943641E-10
  2.5824999E-02   -6.2190730E-10
  2.5860000E-02   -2.0462276E-09
  2.5895000E-02   -9.9593755E-10
  2.5930000E-02    1.6163541E-09
  2.5965000E-02    2.6788840E-09
  2.6000001E-02    2.3129143E-09
  2.6035000E-02    1.3266218E-09
  2.6070001E-02   -6.0984157E-10
  2.6105000E-02   -2.5556635E-09
  2.6140001E-02   -2.4861093E-09
  2.6175000E-02   -1.5721496E-10
  2.6210001E-02    2.6512452E-09
  2.6245000E-02    1.8022819E-09
  2.6280001E-02   -1.9654638E-09
  2.6315000E-02   -2.0653053E-09
  2.6350001E-02    2.1575956E-10
  2.6385000E-02   -2.6163327E-10
  2.6419999E-02    3.7051684E-10
  2.6455000E-02    2.9093463E-09
  2.6489999E-02    3.3486672E-10
  2.6525000E-02   -2.7045746E-09
  2.6559999E-02    7.6650003E-10
  2.6595000E-02    2.0255579E-09
  2.6629999E-02   -1.3954314E-09
  2.6665000E-02   -7.7730139E-10
  2.6699999E-02    4.5068260E-10
  2.6735000E-02   -1.1200599E-09
  2.6769999E-02    1.0213114E-09
  2.6805000E-02    2.8649014E-09
  2.6839999E-02   -2.1079322E-10
  2.6875000E-02   -1.3968002E-10
  2.6910000E-02    1.4889776E-09
  2.6945001E-02   -1.4908389E-09
  2.6980000E-02   -1.7431288E-09