 -4.8000002E-03    1.0000000E-24
 -4.7650002E-03    1.0000002E-24
 -4.7300002E-03    1.0000001E-24
 -4.6950001E-03    1.0000000E-24
 -4.6600001E-03    1.0000003E-24
 -4.6250001E-03    1.0000002E-24
 -4.5900000E-03    1.0000000E-24
 -4.5550000E-03    1.0000001E-24
 -4.5200000E-03    1.0000000E-24
 -4.4849999E-03    1.0000000E-24
 -4.4499999E-03    1.0000002E-24
 -4.4149999E-03    1.0000000E-24
 -4.3799998E-03    9.9999992E-25
 -4.3449998E-03    1.0000000E-24
 -4.3100002E-03    1.0000003E-24
 -4.2750002E-03    1.0000002E-24
 -4.2400002E-03    1.0000001E-24
 -4.2050001E-03    1.0000002E-24
 -4.1700001E-03    1.0000004E-24
 -4.1350001E-03    9.9999992E-25
 -4.1000000E-03    9.9999943E-25
 -4.0650000E-03    1.0000003E-24
 -4.0300000E-03    1.0000004E-24
 -3.9949999E-03    9.9999943E-25
 -3.9599999E-03    9.9999982E-25
 -3.9249999E-03    1.0000007E-24
 -3.8900001E-03    9.9999982E-25
 -3.8550000E-03    9.9999963E-25
 -3.8200000E-03    1.0000006E-24
 -3.7849999E-03    1.0000004E-24
 -3.7499999E-03    9.9999972E-25
 -3.7150001E-03    1.0000005E-24
 -3.6800001E-03    1.0000007E-24
 -3.6450000E-03    9.9999953E-25
 -3.6100000E-03    9.9999953E-25
 -3.5750000E-03    1.0000003E-24
 -3.5399999E-03    9.9999992E-25
 -3.5049999E-03    9.9999972E-25
 -3.4700001E-03    1.0000006E-24
 -3.4350001E-03    1.0000005E-24
 -3.4000000E-03    9.9999982E-25
 -3.3650000E-03    9.9999982E-25
 -3.3300000E-03    1.0000003E-24
 -3.2949999E-03    9.9999992E-25
 -3.2599999E-03    9.9999972E-25
 -3.2250001E-03    9.9999992E-25
 -3.1900001E-03    1.0000001E-24
 -3.1550000E-03    1.0000002E-24
 -3.1200000E-03    1.0000004E-24
 -3.0850000E-03    1.0000006E-24
 -3.0499999E-03    1.0000000E-24
 -3.0149999E-03    9.9999992E-25
 -2.9800001E-03    1.0000004E-24
 -2.9450001E-03    1.0000001E-24
 -2.9100000E-03    9.9999972E-25
 -2.8750000E-03    1.0000001E-24
 -2.8400000E-03    1.0000002E-24
 -2.8049999E-03    9.9999992E-25
 -2.7699999E-03    1.0000000E-24
 -2.7350001E-03    1.0000006E-24
 -2.7000001E-03    1.0000006E-24
 -2.6650000E-03    9.9999963E-25
 -2.6300000E-03    9.9999933E-25
 -2.5950000E-03    9.9999992E-25
 -2.5599999E-03    1.0000002E-24
 -2.5249999E-03    1.0000005E-24
 -2.4900001E-03    1.0000008E-24
 -2.4550001E-03    1.0000005E-24
 -2.4200000E-03    1.0000002E-24
 -2.3850000E-03    9.9999992E-25
 -2.3500000E-03    9.9999953E-25
 -2.3149999E-03    9.9999933E-25
 -2.2799999E-03    9.9999923E-25
 -2.2450001E-03    9.9999992E-25
 -2.2100001E-03    1.0000007E-24
 -2.1750000E-03    1.0000002E-24
 -2.1400000E-03    9.9999943E-25
 -2.1050000E-03    1.0000005E-24
 -2.0699999E-03    1.0000011E-24
 -2.0349999E-03    9.9999992E-25
 -2.0000001E-03    9.9999963E-25
 -1.9650001E-03    1.0000007E-24
 -1.9300000E-03    1.0000008E-24
 -1.8950000E-03    1.0000000E-24
 -1.8600000E-03    9.9999943E-25
 -1.8250000E-03    1.0000002E-24
 -1.7900000E-03    1.0000005E-24
 -1.7550000E-03    9.9999943E-25
 -1.7199999E-03    9.9999963E-25
 -1.6850000E-03    1.0000013E-24
 -1.6500000E-03    1.0000004E-24
 -1.6150000E-03    9.9999844E-25
 -1.5800000E-03    9.9999884E-25
 -1.5450000E-03    9.9999992E-25
 -1.5100000E-03    9.9999992E-25
 -1.4750001E-03    1.0000003E-24
 -1.4400000E-03    1.0000007E-24
 -1.4050000E-03    1.0000006E-24
 -1.3700000E-03    1.0000008E-24
 -1.3350000E-03    1.0000001E-24
 -1.3000000E-03    9.9999923E-25
 -1.2650000E-03    9.9999963E-25
 -1.2300001E-03    1.0000003E-24
 -1.1950000E-03    1.0000005E-24
 -1.1600000E-03    9.9999992E-25
 -1.1250000E-03    9.9999982E-25
 -1.0900000E-03    1.0000003E-24
 -1.0550000E-03    9.9999992E-25
 -1.0200000E-03    9.9999943E-25
 -9.8500005E-04    9.9999992E-25
 -9.5000002E-04    1.0000001E-24
 -9.1499998E-04    1.0000000E-24
 -8.8000001E-04    1.0000008E-24
 -8.4499997E-04    1.0000006E-24
 -8.1000000E-04    9.9999943E-25
 -7.7500002E-04    1.0000001E-24
 -7.3999999E-04    1.0000000E-24
 -7.0500001E-04    9.9999834E-25
 -6.6999998E-04    9.9999953E-25
 -6.3500000E-04    1.0000019E-24
 -6.0000003E-04    1.0000005E-24
 -5.6499999E-04    9.9999884E-25
 -5.3000002E-04    1.0000006E-24
 -4.9499999E-04    1.0000016E-24
 -4.6000001E-04    9.9999943E-25
 -4.2500001E-04    9.9999874E-25
 -3.9000000E-04    1.0000013E-24
 -3.5500000E-04    1.0000017E-24
 -3.1999999E-04    9.9999893E-25
 -2.8499999E-04    9.9999903E-25
 -2.5000001E-04    1.0000017E-24
 -2.1499999E-04    1.0000000E-24
 -1.8000000E-04    9.9999755E-25
 -1.4500000E-04    9.9999992E-25
 -1.1000000E-04    1.0000010E-24
 -7.5000004E-05    9.9999933E-25
 -3.9999999E-05    1.0000002E-24
 -4.9999999E-06    1.0000009E-24
  2.9999999E-05    1.0000000E-24
  6.5000000E-05    1.0000004E-24
  9.9999997E-05    1.0000005E-24
  1.3499999E-04    9.9999923E-25
  1.7000000E-04    9.9999953E-25
  2.0500000E-04    1.0000001E-24
  2.3999999E-04    9.9999953E-25
  2.7500000E-04    1.0000000E-24
  3.1000000E-04    1.0000005E-24
  3.4500001E-04    1.0000003E-24
  3.8000001E-04    1.0000009E-24
  4.1499999E-04    1.0000001E-24
  4.4999999E-04    9.9999893E-25
  4.8500000E-04    1.0000005E-24
  5.2000000E-04    1.0000006E-24
  5.5499998E-04    9.9999824E-25
  5.9000001E-04    1.0000000E-24
  6.2499999E-04    1.0000024E-24
  6.6000002E-04    9.9999953E-25
  6.9500000E-04    9.9999834E-25
  7.3000003E-04    1.0000011E-24
  7.6500000E-04    1.0000009E-24
  7.9999998E-04    9.9999933E-25
  8.3500001E-04    1.0000001E-24
  8.6999999E-04    1.0000003E-24
  9.0500002E-04    1.0000002E-24
  9.4000000E-04    1.0000007E-24
  9.7499997E-04    1.0000001E-24
  1.0100000E-03    1.0000002E-24
  1.0450000E-03    1.0000002E-24
  1.0800000E-03    9.9999854E-25
  1.1150000E-03    9.9999943E-25
  1.1500000E-03    1.0000010E-24
  1.1849999E-03    9.9999953E-25
  1.2200000E-03    9.9999982E-25
  1.2550000E-03    1.0000017E-24
  1.2900000E-03    9.9999943E-25
  1.3250000E-03    9.9999864E-25
  1.3600000E-03    1.0000016E-24
  1.3950000E-03    9.9999992E-25
  1.4299999E-03    9.9999785E-25
  1.4650000E-03    1.0000011E-24
  1.5000000E-03    1.0000017E-24
  1.5350000E-03    9.9999884E-25
  1.5700000E-03    9.9999992E-25
  1.6050000E-03    1.0000009E-24
  1.6400000E-03    9.9999953E-25
  1.6749999E-03    9.9999982E-25
  1.7100000E-03    1.0000011E-24
  1.7450000E-03    1.0000012E-24
  1.7800000E-03    1.0000002E-24
  1.8150000E-03    9.9999893E-25
  1.8500000E-03    1.0000000E-24
  1.8850000E-03    1.0000012E-24
  1.9200000E-03    9.9999963E-25
  1.9550000E-03    9.9999953E-25
  1.9900000E-03    1.0000010E-24
  2.0250001E-03    1.0000000E-24
  2.0600001E-03    9.9999884E-25
  2.0949999E-03    9.9999992E-25
  2.1299999E-03    9.9999972E-25
  2.1650000E-03    1.0000000E-24
  2.2000000E-03    1.0000018E-24
  2.2350000E-03    1.0000002E-24
  2.2700001E-03    9.9999854E-25
  2.3050001E-03    1.0000012E-24
  2.3399999E-03    1.0000014E-24
  2.3749999E-03    9.9999736E-25
  2.4100000E-03    9.9999815E-25
  2.4450000E-03    1.0000047E-24
  2.4800000E-03    1.0000027E-24
  2.5150001E-03    9.9999292E-25
  2.5500001E-03    9.9999647E-25
  2.5849999E-03    1.0000112E-24
  2.6199999E-03    1.0000069E-24
  2.6550000E-03    9.9998375E-25
  2.6900000E-03    9.9998405E-25
  2.7250000E-03    1.0000193E-24
  2.7600001E-03    1.0000347E-24
  2.7950001E-03    9.9997971E-25
  2.8299999E-03    9.9992449E-25
  2.8649999E-03    1.0000164E-24
  2.9000000E-03    1.0001662E-24
  2.9350000E-03    1.0000089E-24
  2.9700000E-03    9.9965756E-25
  3.0050001E-03    9.9991985E-25
  3.0400001E-03    1.0006702E-24
  3.0749999E-03    1.0002512E-24
  3.1099999E-03    9.9874189E-25
  3.1450000E-03    9.9936045E-25
  3.1800000E-03    1.0022698E-24
  3.2150000E-03    1.0014768E-24
  3.2500001E-03    9.9606074E-25
  3.2850001E-03    9.9678235E-25
  3.3199999E-03    1.0065585E-24
  3.3549999E-03    1.0067130E-24
  3.3900000E-03    9.8958015E-25
  3.4250000E-03    9.8650241E-25
  3.4600000E-03    1.0156523E-24
  3.4950001E-03    1.0262745E-24
  3.5300001E-03    9.7822075E-25
  3.5649999E-03    9.5042001E-25
  3.5999999E-03    1.0268441E-24
  3.6350000E-03    1.0907275E-24
  3.6700000E-03    9.7433068E-25
  3.7050000E-03    8.3906944E-25
  3.7400001E-03    1.0066500E-24
  3.7750001E-03    1.2763066E-24
  3.8099999E-03    1.0537996E-24
  3.8449999E-03    5.4196430E-25
  3.8800000E-03    7.9958029E-25
  3.9149998E-03    1.7300846E-24
  3.9499998E-03    1.5134503E-24
  3.9849998E-03   -1.1143803E-25
  4.0199999E-03   -1.2968963E-25
  4.0549999E-03    2.5974342E-24
  4.0899999E-03    3.2710342E-24
  4.1250000E-03   -1.1213142E-24
  4.1600000E-03   -3.2790392E-24
  4.1950000E-03    3.4821867E-24
  4.2300001E-03    8.6484935E-24
  4.2650001E-03   -1.2201262E-24
  4.3000001E-03   -1.2043150E-23
  4.3350002E-03    1.4126555E-24
  4.3700002E-03    2.2258195E-23
  4.4049998E-03    5.6346717E-24
  4.4399998E-03   -3.2065612E-23
  4.4749998E-03   -1.4827439E-23
  4.5099999E-03    4.9834754E-23
  4.5449999E-03    3.8849418E-23
  4.5799999E-03   -6.6763002E-23
  4.6150000E-03   -7.6801832E-23
  4.6500000E-03    8.7478124E-23
  4.6850001E-03    1.4674666E-22
  4.7200001E-03   -9.5713346E-23
  4.7550001E-03   -2.5379675E-22
  4.7900002E-03    8.2702612E-23
  4.8250002E-03    4.2108302E-22
  4.8600002E-03   -1.0021910E-23
  4.8949998E-03   -6.5449646E-22
  4.9299998E-03   -1.6518067E-22
  4.9649999E-03    9.6752162E-22
  4.9999999E-03    5.3005712E-22
  5.0349999E-03   -1.3358123E-21
  5.0700000E-03   -1.1914153E-21
  5.1050000E-03    1.7065820E-21
  5.1400000E-03    2.3111436E-21
  5.1750001E-03   -1.9316475E-21
  5.2100001E-03   -4.0674894E-21
  5.2450001E-03    1.7498075E-21
  5.2800002E-03    6.6602168E-21
  5.3150002E-03   -6.9033856E-22
  5.3500002E-03   -1.0216820E-20
  5.3849998E-03   -1.9685020E-21
  5.4199998E-03    1.4708533E-20
  5.4549999E-03    7.2997405E-21
  5.4899999E-03   -1.9724484E-20
  5.5249999E-03   -1.6727716E-20
  5.5600000E-03    2.4210328E-20
  5.5950000E-03    3.2004235E-20
  5.6300000E-03   -2.6030269E-20
  5.6650001E-03   -5.4953925E-20
  5.7000001E-03    2.1490291E-20
  5.7350001E-03    8.7005060E-20
  5.7700002E-03   -4.7514729E-21
  5.8050002E-03   -1.2824289E-19
  5.8400002E-03   -3.2609124E-20
  5.8749998E-03    1.7596366E-19
  5.9099998E-03    1.0177423E-19
  5.9449999E-03   -2.2249248E-19
  5.9799999E-03   -2.1609131E-19
  6.0149999E-03    2.5236314E-19
  6.0500000E-03    3.8927918E-19
  6.0850000E-03   -2.3891980E-19
  6.1200000E-03   -6.3161733E-19
  6.1550001E-03    1.4097633E-19
  6.1900001E-03    9.4344560E-19
  6.2250001E-03    9.9584849E-20
  6.2600002E-03   -1.3051481E-18
  6.2950002E-03   -5.5740817E-19
  6.3299998E-03    1.6633896E-18
  6.3649998E-03    1.3182085E-18
  6.3999998E-03   -1.9140012E-18
  6.4349999E-03   -2.4648456E-18
  6.4699999E-03    1.8834276E-18
  6.5049999E-03    4.0513569E-18
  6.5400000E-03   -1.3127189E-18
  6.5750000E-03   -6.0613570E-18
  6.6100000E-03   -1.4904017E-19
  6.6450001E-03    8.3486239E-18
  6.6800001E-03    2.9317674E-18
  6.7150001E-03   -1.0560709E-17
  6.7500002E-03   -7.4984559E-18
  6.7850002E-03    1.2052575E-17
  6.8199998E-03    1.4250540E-17
  6.8549998E-03   -1.1804208E-17
  6.8899998E-03   -2.3369295E-17
  6.9249999E-03    8.3691777E-18
  6.9599999E-03    3.4582926E-17
  6.9949999E-03    1.0775788E-19
  7.0300000E-03   -4.6860149E-17
  7.0650000E-03   -1.5752029E-17
  7.1000000E-03    5.8051866E-17
  7.1350001E-03    4.0638315E-17
  7.1700001E-03   -6.4535129E-17
  7.2050001E-03   -7.6230093E-17
  7.2400002E-03    6.0949758E-17
  7.2750002E-03    1.2253499E-16
  7.3099998E-03   -4.0171437E-17
  7.3449998E-03   -1.7697624E-16
  7.3799998E-03   -6.2969997E-18
  7.4149999E-03    2.3305667E-16
  7.4499999E-03    8.7302945E-17
  7.4850000E-03   -2.7898714E-16
  7.5200000E-03   -2.1017390E-16
  7.5550000E-03    2.9660563E-16
  7.5900001E-03    3.7785841E-16
  7.6250001E-03   -2.6106577E-16
  7.6600001E-03   -5.8508420E-16
  7.6950002E-03    1.4189660E-16
  7.7300002E-03    8.1376176E-16
  7.7650002E-03    9.3845156E-17
  7.7999998E-03   -1.0282559E-15
  7.8349998E-03   -4.7566040E-16
  7.8699999E-03    1.1715430E-15
  7.9049999E-03    1.0204897E-15
  7.9399999E-03   -1.1638213E-15
  7.9750000E-03   -1.7205112E-15
  8.0100000E-03    9.0545736E-16
  8.0450000E-03    2.5285369E-15
  8.0800001E-03   -2.8644449E-16
  8.1150001E-03   -3.3431666E-15
  8.1500001E-03   -7.9571736E-16
  8.1850002E-03    3.9967931E-15
  8.2200002E-03    2.4085534E-15
  8.2550002E-03   -4.2511567E-15
  8.2900003E-03   -4.5481963E-15
  8.3250003E-03    3.8061328E-15
  8.3600003E-03    7.0966131E-15
  8.3950004E-03   -2.3275748E-15
  8.4300004E-03   -9.7790216E-15
  8.4650004E-03   -5.0085725E-16
  8.5000005E-03    1.2130708E-14
  8.5349996E-03    4.8993381E-15
  8.5699996E-03   -1.3486790E-14
  8.6049996E-03   -1.0890364E-14
  8.6399997E-03    1.3009797E-14
  8.6749997E-03    1.8183438E-14
  8.7099997E-03   -9.7697847E-15
  8.7449998E-03   -2.6063048E-14
  8.7799998E-03    2.8886519E-15
  8.8149998E-03    3.3310038E-14
  8.8499999E-03    8.2509725E-15
  8.8849999E-03   -3.8185872E-14
  8.9199999E-03   -2.3741431E-14
  8.9550000E-03    3.8521181E-14
  8.9900000E-03    4.2863482E-14
  9.0250000E-03   -3.1939325E-14
  9.0600001E-03   -6.3825274E-14
  9.0950001E-03    1.6233979E-14
  9.1300001E-03    8.3597375E-14
  9.1650002E-03    1.0107060E-14
  9.2000002E-03   -9.7925432E-14
  9.2350002E-03   -4.7271296E-14
  9.2700003E-03    1.0159747E-13
  9.3050003E-03    9.3472010E-14
  9.3400003E-03   -8.9034242E-14
  9.3750004E-03   -1.4440402E-13
  9.4100004E-03    5.5211451E-14
  9.4450004E-03    1.9297059E-13
  9.4799995E-03    3.1218541E-15
  9.5149996E-03   -2.2945336E-13
  9.5499996E-03   -8.6070731E-14
  9.5849996E-03    2.4226522E-13
  9.6199997E-03    1.8926118E-13
  9.6549997E-03   -2.1938752E-13
  9.6899997E-03   -3.0286749E-13
  9.7249998E-03    1.5046640E-13
  9.7599998E-03    4.1131025E-13
  9.7949998E-03   -2.9385840E-14
  9.8299999E-03   -4.9394023E-13
  9.8649999E-03   -1.4298927E-13
  9.8999999E-03    5.2697652E-13
  9.9350000E-03    3.5642545E-13
  9.9700000E-03   -4.8671375E-13
  1.0005000E-02   -5.8983016E-13
  1.0040000E-02    3.5385665E-13
  1.0075000E-02    8.1130193E-13
  1.0110000E-02   -1.1849473E-13
  1.0145000E-02   -9.8021580E-13
  1.0180000E-02   -2.1502162E-13
  1.0215000E-02    1.0515753E-12
  1.0250000E-02    6.2425244E-13
  1.0285000E-02   -9.8259812E-13
  1.0320000E-02   -1.0669801E-12
  1.0355000E-02    7.4084781E-13
  1.0390000E-02    1.4825821E-12
  1.0425000E-02   -3.1291373E-13
  1.0460000E-02   -1.7971041E-12
  1.0495000E-02   -2.8774772E-13
  1.0530000E-02    1.9321680E-12
  1.0565000E-02    1.0156592E-12
  1.0600000E-02   -1.8170935E-12
  1.0635000E-02   -1.7923792E-12
  1.0670000E-02    1.4028513E-12
  1.0705000E-02    2.5110974E-12
  1.0740000E-02   -6.7590708E-13
  1.0775000E-02   -3.0473278E-12
  1.0810000E-02   -3.3086459E-13
  1.0845000E-02    3.2752945E-12
  1.0880000E-02    1.5323312E-12
  1.0915000E-02   -3.0884752E-12
  1.0950000E-02   -2.7933261E-12
  1.0985000E-02    2.4212321E-12
  1.1020000E-02    3.9394399E-12
  1.1055000E-02   -1.2685022E-12
  1.1090000E-02   -4.7770590E-12
  1.1125000E-02   -3.0051485E-13
  1.1160000E-02    5.1208031E-12
  1.1195000E-02    2.1386829E-12
  1.1230000E-02   -4.8252162E-12
  1.1265000E-02   -4.0296924E-12
  1.1300000E-02    3.8156453E-12
  1.1335000E-02    5.7101190E-12
  1.1370000E-02   -2.1128685E-12
  1.1405000E-02   -6.9031369E-12
  1.1440000E-02   -1.5383667E-13
  1.1475000E-02    7.3605531E-12
  1.1510000E-02    2.7496057E-12
  1.1545000E-02   -6.9067018E-12
  1.1580000E-02   -5.3549235E-12
  1.1615000E-02    5.4776648E-12
  1.1650000E-02    7.6043139E-12
  1.1685000E-02   -3.1472067E-12
  1.1720000E-02   -9.1382136E-12
  1.1755000E-02    1.3297574E-13
  1.1790000E-02    9.6612883E-12
  1.1825000E-02    3.2207939E-12
  1.1860000E-02   -8.9965205E-12
  1.1895000E-02   -6.4842780E-12
  1.1930000E-02    7.1254777E-12
  1.1965000E-02    9.2011477E-12
  1.2000000E-02   -4.2064533E-12
  1.2035000E-02   -1.0958520E-11
  1.2070000E-02    5.6431341E-13
  1.2105000E-02    1.1455863E-11
  1.2140000E-02    3.3481011E-12
  1.2175000E-02   -1.0560892E-11
  1.2210000E-02   -7.0150509E-12
  1.2245000E-02    8.3397534E-12
  1.2280000E-02    9.9367693E-12
  1.2315000E-02   -5.0546620E-12
  1.2350000E-02   -1.1709980E-11
  1.2385000E-02    1.1263866E-12
  1.2420000E-02    1.2091250E-11
  1.2455000E-02    2.9281011E-12
  1.2490000E-02   -1.1036678E-11
  1.2525000E-02   -6.5749290E-12
  1.2560000E-02    8.7093197E-12
  1.2595000E-02    9.3465123E-12
  1.2630000E-02   -5.4529098E-12
  1.2665000E-02   -1.0915923E-11
  1.2700000E-02    1.7307517E-12
  1.2735000E-02    1.1141889E-11
  1.2770000E-02    1.9515919E-12
  1.2805000E-02   -1.0079715E-11
  1.2840000E-02   -5.1254365E-12
  1.2875000E-02    7.9597605E-12
  1.2910000E-02    7.4250675E-12
  1.2945000E-02   -5.1407737E-12
  1.2980000E-02   -8.6334637E-12
  1.3015000E-02    2.0469681E-12
  1.3050000E-02    8.6994552E-12
  1.3085000E-02    8.9798129E-13
  1.3120000E-02   -7.7276839E-12
  1.3155000E-02   -3.3267597E-12
  1.3190000E-02    5.9510574E-12
  1.3225000E-02    4.9730328E-12
  1.3260000E-02   -3.6865103E-12
  1.3295000E-02   -5.6964485E-12
  1.3330000E-02    1.2805907E-12
  1.3365000E-02    5.4776500E-12
  1.3400000E-02    9.3080990E-13
  1.3435000E-02   -4.3975427E-12
  1.3470000E-02   -2.6361031E-12
  1.3505000E-02    2.6339354E-12
  1.3540000E-02    3.5658041E-12
  1.3575000E-02   -4.7068968E-13
  1.3610000E-02   -3.5411689E-12
  1.3645000E-02   -1.7301943E-12
  1.3680000E-02    2.5111005E-12
  1.3715000E-02    3.5818566E-12
  1.3750000E-02   -5.4595727E-13
  1.3785000E-02   -4.6937406E-12
  1.3820000E-02   -2.1567778E-12
  1.3855000E-02    4.6795389E-12
  1.3890000E-02    5.2147609E-12
  1.3925000E-02   -3.2482647E-12
  1.3960000E-02   -8.0575572E-12
  1.3995000E-02    3.3210901E-13
  1.4030000E-02    1.0034689E-11
  1.4065000E-02    3.8754286E-12
  1.4100000E-02   -1.0521837E-11
  1.4135000E-02   -8.9403658E-12
  1.4170000E-02    8.9616517E-12
  1.4205000E-02    1.4137289E-11
  1.4240000E-02   -4.9983737E-12
  1.4275000E-02   -1.8448840E-11
  1.4310000E-02   -1.2965361E-12
  1.4345000E-02    2.0776087E-11
  1.4380000E-02    9.3578131E-12
  1.4415000E-02   -2.0177277E-11
  1.4450000E-02   -1.8223952E-11
  1.4485000E-02    1.5943406E-11
  1.4520000E-02    2.6507411E-11
  1.4555000E-02   -7.7996507E-12
  1.4590000E-02   -3.2401474E-11
  1.4625000E-02   -3.6607987E-12
  1.4660000E-02    3.4163328E-11
  1.4695000E-02    1.6897745E-11
  1.4730000E-02   -3.0726619E-11
  1.4765000E-02   -2.9892842E-11
  1.4800000E-02    2.1777106E-11
  1.4835000E-02    4.0406040E-11
  1.4870000E-02   -7.7393127E-12
  1.4905000E-02   -4.5936720E-11
  1.4940000E-02   -9.6809201E-12
  1.4975000E-02    4.4422990E-11
  1.5010000E-02    2.7361466E-11
  1.5045000E-02   -3.5451624E-11
  1.5080000E-02   -4.1939813E-11
  1.5115000E-02    2.0302237E-11
  1.5150000E-02    5.0878690E-11
  1.5185000E-02   -1.0383766E-12
  1.5220000E-02   -5.2250700E-11
  1.5255000E-02   -1.9445303E-11
  1.5290000E-02    4.4930164E-11
  1.5325000E-02    3.7087656E-11
  1.5360000E-02   -2.9980705E-11
  1.5395000E-02   -4.8157176E-11
  1.5430000E-02    1.0679027E-11
  1.5465000E-02    5.1030475E-11
  1.5500000E-02    9.4215772E-12
  1.5535000E-02   -4.5615251E-11
  1.5570000E-02   -2.7119952E-11
  1.5605000E-02    3.2527727E-11
  1.5640000E-02    3.8733201E-11
  1.5675001E-02   -1.4429775E-11
  1.5710000E-02   -4.1484170E-11
  1.5745001E-02   -3.8009010E-12
  1.5780000E-02    3.5970425E-11
  1.5814999E-02    1.8239927E-11
  1.5850000E-02   -2.4810879E-11
  1.5884999E-02   -2.7179311E-11
  1.5920000E-02    1.0122406E-11
  1.5954999E-02    2.8856251E-11
  1.5990000E-02    4.7633442E-12
  1.6024999E-02   -2.2549787E-11
  1.6060000E-02   -1.4752970E-11
  1.6094999E-02    1.1663189E-11
  1.6130000E-02    1.7247308E-11
  1.6164999E-02   -1.6411453E-12
  1.6200000E-02   -1.4418468E-11
  1.6235000E-02   -5.2471053E-12
  1.6270000E-02    8.8298197E-12
  1.6305000E-02    9.1373688E-12
  1.6340001E-02   -4.1952149E-13
  1.6375000E-02   -6.9075908E-12
  1.6410001E-02   -6.0809630E-12
  1.6445000E-02    4.8277907E-13
  1.6480001E-02    8.7747518E-12
  1.6515000E-02    8.9656728E-12
  1.6550001E-02   -2.9945107E-12
  1.6585000E-02   -1.0626567E-11
  1.6620001E-02    2.2431217E-12
  1.6655000E-02    1.8756031E-11
  1.6690001E-02    1.0221801E-11
  1.6725000E-02   -1.1705902E-11
  1.6759999E-02   -7.5240794E-12
  1.6795000E-02    2.1489312E-11
  1.6829999E-02    2.9529549E-11
  1.6865000E-02    4.7126287E-12
  1.6899999E-02   -6.4918635E-12
  1.6935000E-02    2.1194737E-11
  1.6969999E-02    4.6172833E-11
  1.7005000E-02    3.1787170E-11
  1.7039999E-02    1.0728437E-11
  1.7075000E-02    2.9159005E-11
  1.7109999E-02    6.9078784E-11
  1.7145000E-02    8.1028788E-11
  1.7180000E-02    6.5880114E-11
  1.7215000E-02    6.9423571E-11
  1.7250000E-02    1.0809787E-10
  1.7285001E-02    1.4812680E-10
  1.7320000E-02    1.6112445E-10
  1.7355001E-02    1.6589748E-10
  1.7390000E-02    2.0046319E-10
  1.7425001E-02    2.6811098E-10
  1.7460000E-02    3.3192030E-10
  1.7495001E-02    3.6913900E-10
  1.7530000E-02    4.1058659E-10
  1.7565001E-02    4.9827154E-10
  1.7600000E-02    6.1797895E-10
  1.7635001E-02    7.2151607E-10
  1.7670000E-02    8.1335955E-10
  1.7704999E-02    9.5166175E-10
  1.7740000E-02    1.1505589E-09
  1.7774999E-02    1.3561519E-09
  1.7810000E-02    1.5478003E-09
  1.7844999E-02    1.7839157E-09
  1.7880000E-02    2.1048236E-09
  1.7914999E-02    2.4685602E-09
  1.7950000E-02    2.8386313E-09
  1.7984999E-02    3.2622844E-09
  1.8020000E-02    3.7954875E-09
  1.8054999E-02    4.4169775E-09
  1.8090000E-02    5.0873790E-09
  1.8124999E-02    5.8366445E-09
  1.8160000E-02    6.7220634E-09
  1.8195000E-02    7.7482456E-09
  1.8230001E-02    8.8940135E-09
  1.8265000E-02    1.0180880E-08
  1.8300001E-02    1.1658260E-08
  1.8335000E-02    1.3348703E-08
  1.8370001E-02    1.5252793E-08
  1.8405000E-02    1.7393573E-08
  1.8440001E-02    1.9820787E-08
  1.8475000E-02    2.2574511E-08
  1.8510001E-02    2.5672497E-08
  1.8545000E-02    2.9143589E-08
  1.8580001E-02    3.3045929E-08
  1.8615000E-02    3.7454534E-08
  1.8650001E-02    4.2421860E-08
  1.8685000E-02    4.7963336E-08
  1.8719999E-02    5.4126268E-08
  1.8755000E-02    6.1034299E-08
  1.8789999E-02    6.8803978E-08
  1.8825000E-02    7.7471142E-08
  1.8859999E-02    8.7069779E-08
  1.8895000E-02    9.7737647E-08
  1.8929999E-02    1.0966451E-07
  1.8965000E-02    1.2295450E-07
  1.8999999E-02    1.3764091E-07
  1.9035000E-02    1.5386343E-07
  1.9069999E-02    1.7188985E-07
  1.9105000E-02    1.9188286E-07
  1.9140000E-02    2.1390784E-07
  1.9175000E-02    2.3816925E-07
  1.9210000E-02    2.6497636E-07
  1.9245001E-02    2.9454131E-07
  1.9280000E-02    3.2701780E-07
  1.9315001E-02    3.6264998E-07
  1.9350000E-02    4.0180799E-07
  1.9385001E-02    4.4484040E-07
  1.9420000E-02    4.9195194E-07
  1.9455001E-02    5.4341660E-07
  1.9490000E-02    5.9971944E-07
  1.9525001E-02    6.6130968E-07
  1.9560000E-02    7.2850975E-07
  1.9595001E-02    8.0168348E-07
  1.9630000E-02    8.8133322E-07
  1.9664999E-02    9.6802671E-07
  1.9700000E-02    1.0622731E-06
  1.9734999E-02    1.1645989E-06
  1.9770000E-02    1.2755424E-06
  1.9804999E-02    1.3956773E-06
  1.9840000E-02    1.5257621E-06
  1.9874999E-02    1.6664774E-06
  1.9910000E-02    1.8184504E-06
  1.9944999E-02    1.9824722E-06
  1.9980000E-02    2.1593194E-06
  2.0014999E-02    2.3497646E-06
  2.0050000E-02    2.5547208E-06
  2.0085000E-02    2.7750425E-06
  2.0120000E-02    3.0116107E-06
  2.0155000E-02    3.2655105E-06
  2.0190001E-02    3.5376333E-06
  2.0225000E-02    3.8288927E-06
  2.0260001E-02    4.1405669E-06
  2.0295000E-02    4.4736853E-06
  2.0330001E-02    4.8293077E-06
  2.0365000E-02    5.2086898E-06
  2.0400001E-02    5.6127756E-06
  2.0435000E-02    6.0428624E-06
  2.0470001E-02    6.5007280E-06
  2.0505000E-02    6.9871853E-06
  2.0540001E-02    7.5030284E-06
  2.0575000E-02    8.0502914E-06
  2.0609999E-02    8.6305017E-06
  2.0645000E-02    9.2441051E-06
  2.0679999E-02    9.8926275E-06
  2.0715000E-02    1.0577984E-05
  2.0749999E-02    1.1301446E-05
  2.0785000E-02    1.2063962E-05
  2.0819999E-02    1.2866963E-05
  2.0855000E-02    1.3711661E-05
  2.0889999E-02    1.4599547E-05
  2.0925000E-02    1.5532085E-05
  2.0959999E-02    1.6510125E-05
  2.0995000E-02    1.7534801E-05
  2.1029999E-02    1.8607805E-05
  2.1065000E-02    1.9729952E-05
  2.1100000E-02    2.0902173E-05
  2.1135001E-02    2.2125454E-05
  2.1170000E-02    2.3400731E-05
  2.1205001E-02    2.4728828E-05
  2.1240000E-02    2.6110985E-05
  2.1275001E-02    2.7547356E-05
  2.1310000E-02    2.9038009E-05
  2.1345001E-02    3.0583724E-05
  2.1380000E-02    3.2185162E-05
  2.1415001E-02    3.3842309E-05
  2.1450000E-02    3.5555091E-05
  2.1485001E-02    3.7323633E-05
  2.1520000E-02    3.9147504E-05
  2.1555001E-02    4.1025836E-05
  2.1590000E-02    4.2958283E-05
  2.1624999E-02    4.4944194E-05
  2.1660000E-02    4.6982528E-05
  2.1694999E-02    4.9072645E-05
  2.1730000E-02    5.1212424E-05
  2.1764999E-02    5.3399726E-05
  2.1800000E-02    5.5633955E-05
  2.1834999E-02    5.7913254E-05
  2.1870000E-02    6.0234979E-05
  2.1904999E-02    6.2595929E-05
  2.1940000E-02    6.4993714E-05
  2.1974999E-02    6.7425979E-05
  2.2010000E-02    6.9889560E-05
  2.2045000E-02    7.2380441E-05
  2.2080000E-02    7.4897034E-05
  2.2115000E-02    7.7434241E-05
  2.2150001E-02    7.9984602E-05
  2.2185000E-02    8.2547180E-05
  2.2220001E-02    8.5120555E-05
  2.2255000E-02    8.7695982E-05
  2.2290001E-02    9.0267014E-05
  2.2325000E-02    9.2833114E-05
  2.2360001E-02    9.5387826E-05
  2.2395000E-02    9.7921846E-05
  2.2430001E-02    1.0043236E-04
  2.2465000E-02    1.0291527E-04
  2.2500001E-02    1.0536165E-04
  2.2535000E-02    1.0776515E-04
  2.2569999E-02    1.1012215E-04
  2.2605000E-02    1.1242791E-04
  2.2639999E-02    1.1467357E-04
  2.2675000E-02    1.1685008E-04
  2.2709999E-02    1.1895442E-04
  2.2745000E-02    1.2098202E-04
  2.2779999E-02    1.2292272E-04
  2.2815000E-02    1.2476917E-04
  2.2849999E-02    1.2651909E-04
  2.2885000E-02    1.2816569E-04
  2.2919999E-02    1.2969979E-04
  2.2955000E-02    1.3111811E-04
  2.2990000E-02    1.3241639E-04
  2.3025000E-02    1.3358481E-04
  2.3060000E-02    1.3461786E-04
  2.3095001E-02    1.3551360E-04
  2.3130000E-02    1.3626768E-04
  2.3165001E-02    1.3687443E-04
  2.3200000E-02    1.3732883E-04
  2.3235001E-02    1.3762561E-04
  2.3270000E-02    1.3776236E-04
  2.3305001E-02    1.3773773E-04
  2.3340000E-02    1.3754686E-04
  2.3375001E-02    1.3718703E-04
  2.3410000E-02    1.3665960E-04
  2.3445001E-02    1.3596154E-04
  2.3480000E-02    1.3508913E-04
  2.3514999E-02    1.3404529E-04
  2.3550000E-02    1.3283145E-04
  2.3584999E-02    1.3144464E-04
  2.3620000E-02    1.2988661E-04
  2.3654999E-02    1.2816071E-04
  2.3690000E-02    1.2626822E-04
  2.3724999E-02    1.2421171E-04
  2.3760000E-02    1.2199557E-04
  2.3794999E-02    1.1962419E-04
  2.3830000E-02    1.1710235E-04
  2.3864999E-02    1.1443252E-04
  2.3900000E-02    1.1162112E-04
  2.3934999E-02    1.0867668E-04
  2.3970000E-02    1.0560432E-04
  2.4005000E-02    1.0241121E-04
  2.4040001E-02    9.9105397E-05
  2.4075000E-02    9.5692325E-05
  2.4110001E-02    9.2182083E-05
  2.4145000E-02    8.8585883E-05
  2.4180001E-02    8.4910273E-05
  2.4215000E-02    8.1163431E-05
  2.4250001E-02    7.7359655E-05
  2.4285000E-02    7.3506526E-05
  2.4320001E-02    6.9611022E-05
  2.4355000E-02    6.5688444E-05
  2.4390001E-02    6.1750085E-05
  2.4425000E-02    5.7802336E-05
  2.4460001E-02    5.3857406E-05
  2.4495000E-02    4.9927577E-05
  2.4529999E-02    4.6022036E-05
  2.4565000E-02    4.2150688E-05
  2.4599999E-02    3.8324677E-05
  2.4635000E-02    3.4555429E-05
  2.4669999E-02    3.0853033E-05
  2.4705000E-02    2.7226739E-05
  2.4739999E-02    2.3686056E-05
  2.4775000E-02    2.0239382E-05
  2.4809999E-02    1.6894583E-05
  2.4845000E-02    1.3660841E-05
  2.4879999E-02    1.0547233E-05
  2.4915000E-02    7.5596981E-06
  2.4950000E-02    4.7046869E-06
  2.4985000E-02    1.9903293E-06
  2.5020000E-02   -5.8002024E-07
  2.5055001E-02   -3.0021295E-06
  2.5090000E-02   -5.2691676E-06
  2.5125001E-02   -7.3784768E-06
  2.5160000E-02   -9.3288527E-06
  2.5195001E-02   -1.1116819E-05
  2.5230000E-02   -1.2741938E-05
  2.5265001E-02   -1.4202494E-05
  2.5300000E-02   -1.5496160E-05
  2.5335001E-02   -1.6627508E-05
  2.5370000E-02   -1.7598981E-05
  2.5405001E-02   -1.8407831E-05
  2.5440000E-02   -1.9058964E-05
  2.5474999E-02   -1.9558442E-05
  2.5510000E-02   -1.9907888E-05
  2.5544999E-02   -2.0113033E-05
  2.5580000E-02   -2.0179783E-05
  2.5614999E-02   -2.0112984E-05
  2.5650000E-02   -1.9920948E-05
  2.5684999E-02   -1.9607009E-05
  2.5720000E-02   -1.9176925E-05
  2.5754999E-02   -1.8646995E-05
  2.5790000E-02   -1.8022378E-05
  2.5824999E-02   -1.7303570E-05
  2.5860000E-02   -1.6508402E-05
  2.5895000E-02   -1.5646818E-05
  2.5930000E-02   -1.4716245E-05
  2.5965000E-02   -1.3734684E-05
  2.6000001E-02   -1.2717984E-05
  2.6035000E-02   -1.1661617E-05
  2.6070001E-02   -1.0577982E-05
  2.6105000E-02   -9.4850966E-06
  2.6140001E-02   -8.3814384E-06
  2.6175000E-02   -7.2777143E-06
  2.6210001E-02   -6.1916089E-06
  2.6245000E-02   -5.1196430E-06
  2.6280001E-02   -4.0689774E-06
  2.6315000E-02   -3.0591195E-06
  2.6350001E-02   -2.0894258E-06
  2.6385000E-02   -1.1617469E-06
  2.6419999E-02   -2.8884310E-07
  2.6455000E-02    5.2858837E-07
  2.6489999E-02    1.2826557E-06
  2.6525000E-02    1.9622930E-06
  2.6559999E-02    2.5772240E-06
  2.6595000E-02    3.1223865E-06
  2.6629999E-02    3.5801281E-06
  2.6665000E-02    3.9642464E-06
  2.6699999E-02    4.2805468E-06
  2.6735000E-02    4.5071283E-06
  2.6769999E-02    4.6503778E-06
  2.6805000E-02    4.7263889E-06
  2.6839999E-02    4.7198673E-06
  2.6875000E-02    4.6292644E-06
  2.6910000E-02    4.4736562E-06
  2.6945001E-02    4.2502315E-06
  2.6980000E-02    3.9545680E-06