 -4.8000002E-03    1.0000000E-24
 -4.7650002E-03    1.0000000E-24
 -4.7300002E-03    1.0000001E-24
 -4.6950001E-03    1.0000002E-24
 -4.6600001E-03    1.0000002E-24
 -4.6250001E-03    1.0000000E-24
 -4.5900000E-03    1.0000000E-24
 -4.5550000E-03    1.0000002E-24
 -4.5200000E-03    1.0000001E-24
 -4.4849999E-03    1.0000002E-24
 -4.4499999E-03    1.0000001E-24
 -4.4149999E-03    9.9999992E-25
 -4.3799998E-03    1.0000000E-24
 -4.3449998E-03    1.0000004E-24
 -4.3100002E-03    1.0000004E-24
 -4.2750002E-03    9.9999992E-25
 -4.2400002E-03    9.9999972E-25
 -4.2050001E-03    1.0000000E-24
 -4.1700001E-03    1.0000002E-24
 -4.1350001E-03    1.0000000E-24
 -4.1000000E-03    1.0000000E-24
 -4.0650000E-03    1.0000000E-24
 -4.0300000E-03    1.0000000E-24
 -3.9949999E-03    1.0000002E-24
 -3.9599999E-03    1.0000001E-24
 -3.9249999E-03    9.9999992E-25
 -3.8900001E-03    1.0000001E-24
 -3.8550000E-03    1.0000003E-24
 -3.8200000E-03    9.9999992E-25
 -3.7849999E-03    1.0000000E-24
 -3.7499999E-03    1.0000004E-24
 -3.7150001E-03    1.0000003E-24
 -3.6800001E-03    1.0000001E-24
 -3.6450000E-03    1.0000000E-24
 -3.6100000E-03    9.9999982E-25
 -3.5750000E-03    9.9999963E-25
 -3.5399999E-03    1.0000000E-24
 -3.5049999E-03    1.0000005E-24
 -3.4700001E-03    1.0000005E-24
 -3.4350001E-03    1.0000002E-24
 -3.4000000E-03    1.0000000E-24
 -3.3650000E-03    9.9999972E-25
 -3.3300000E-03    9.9999963E-25
 -3.2949999E-03    9.9999992E-25
 -3.2599999E-03    1.0000001E-24
 -3.2250001E-03    1.0000003E-24
 -3.1900001E-03    1.0000003E-24
 -3.1550000E-03    1.0000001E-24
 -3.1200000E-03    9.9999972E-25
 -3.0850000E-03    9.9999982E-25
 -3.0499999E-03    1.0000001E-24
 -3.0149999E-03    1.0000003E-24
 -2.9800001E-03    1.0000002E-24
 -2.9450001E-03    1.0000002E-24
 -2.9100000E-03    1.0000000E-24
 -2.8750000E-03    9.9999982E-25
 -2.8400000E-03    1.0000001E-24
 -2.8049999E-03    1.0000001E-24
 -2.7699999E-03    9.9999982E-25
 -2.7350001E-03    1.0000001E-24
 -2.7000001E-03    1.0000005E-24
 -2.6650000E-03    1.0000002E-24
 -2.6300000E-03    1.0000002E-24
 -2.5950000E-03    1.0000005E-24
 -2.5599999E-03    1.0000004E-24
 -2.5249999E-03    1.0000003E-24
 -2.4900001E-03    1.0000002E-24
 -2.4550001E-03    9.9999992E-25
 -2.4200000E-03    9.9999963E-25
 -2.3850000E-03    1.0000000E-24
 -2.3500000E-03    1.0000002E-24
 -2.3149999E-03    1.0000001E-24
 -2.2799999E-03    1.0000003E-24
 -2.2450001E-03    1.0000002E-24
 -2.2100001E-03    9.9999953E-25
 -2.1750000E-03    9.9999963E-25
 -2.1400000E-03    1.0000002E-24
 -2.1050000E-03    1.0000003E-24
 -2.0699999E-03    9.9999982E-25
 -2.0349999E-03    1.0000002E-24
 -2.0000001E-03    1.0000010E-24
 -1.9650001E-03    1.0000007E-24
 -1.9300000E-03    9.9999992E-25
 -1.8950000E-03    9.9999992E-25
 -1.8600000E-03    9.9999992E-25
 -1.8250000E-03    1.0000000E-24
 -1.7900000E-03    1.0000000E-24
 -1.7550000E-03    9.9999963E-25
 -1.7199999E-03    9.9999992E-25
 -1.6850000E-03    1.0000007E-24
 -1.6500000E-03    1.0000004E-24
 -1.6150000E-03    9.9999963E-25
 -1.5800000E-03    9.9999963E-25
 -1.5450000E-03    1.0000001E-24
 -1.5100000E-03    1.0000008E-24
 -1.4750001E-03    1.0000008E-24
 -1.4400000E-03    1.0000000E-24
 -1.4050000E-03    9.9999943E-25
 -1.3700000E-03    9.9999972E-25
 -1.3350000E-03    9.9999972E-25
 -1.3000000E-03    9.9999963E-25
 -1.2650000E-03    1.0000005E-24
 -1.2300001E-03    1.0000012E-24
 -1.1950000E-03    1.0000004E-24
 -1.1600000E-03    9.9999933E-25
 -1.1250000E-03    9.9999943E-25
 -1.0900000E-03    1.0000002E-24
 -1.0550000E-03    1.0000005E-24
 -1.0200000E-03    1.0000004E-24
 -9.8500005E-04    1.0000003E-24
 -9.5000002E-04    1.0000000E-24
 -9.1499998E-04    9.9999982E-25
 -8.8000001E-04    1.0000002E-24
 -8.4499997E-04    1.0000005E-24
 -8.1000000E-04    1.0000001E-24
 -7.7500002E-04    1.0000001E-24
 -7.3999999E-04    1.0000001E-24
 -7.0500001E-04    9.9999982E-25
 -6.6999998E-04    9.9999972E-25
 -6.3500000E-04    9.9999982E-25
 -6.0000003E-04    1.0000005E-24
 -5.6499999E-04    1.0000011E-24
 -5.3000002E-04    1.0000000E-24
 -4.9499999E-04    9.9999844E-25
 -4.6000001E-04    9.9999913E-25
 -4.2500001E-04    1.0000005E-24
 -3.9000000E-04    1.0000006E-24
 -3.5500000E-04    1.0000007E-24
 -3.1999999E-04    1.0000008E-24
 -2.8499999E-04    1.0000002E-24
 -2.5000001E-04    9.9999943E-25
 -2.1499999E-04    9.9999953E-25
 -1.8000000E-04    9.9999992E-25
 -1.4500000E-04    1.0000002E-24
 -1.1000000E-04    1.0000007E-24
 -7.5000004E-05    1.0000006E-24
 -3.9999999E-05    1.0000003E-24
 -4.9999999E-06    1.0000005E-24
  2.9999999E-05    1.0000001E-24
  6.5000000E-05    9.9999992E-25
  9.9999997E-05    9.9999972E-25
  1.3499999E-04    9.9999943E-25
  1.7000000E-04    9.9999972E-25
  2.0500000E-04    1.0000007E-24
  2.3999999E-04    1.0000007E-24
  2.7500000E-04    9.9999982E-25
  3.1000000E-04    9.9999953E-25
  3.4500001E-04    1.0000003E-24
  3.8000001E-04    1.0000005E-24
  4.1499999E-04    9.9999913E-25
  4.4999999E-04    9.9999923E-25
  4.8500000E-04    1.0000006E-24
  5.2000000E-04    1.0000007E-24
  5.5499998E-04    1.0000004E-24
  5.9000001E-04    1.0000007E-24
  6.2499999E-04    9.9999992E-25
  6.6000002E-04    9.9999874E-25
  6.9500000E-04    9.9999923E-25
  7.3000003E-04    1.0000002E-24
  7.6500000E-04    1.0000008E-24
  7.9999998E-04    1.0000007E-24
  8.3500001E-04    9.9999992E-25
  8.6999999E-04    9.9999943E-25
  9.0500002E-04    9.9999992E-25
  9.4000000E-04    1.0000001E-24
  9.7499997E-04    1.0000000E-24
  1.0100000E-03    1.0000010E-24
  1.0450000E-03    1.0000019E-24
  1.0800000E-03    1.0000009E-24
  1.1150000E-03    9.9999913E-25
  1.1500000E-03    9.9999884E-25
  1.1849999E-03    1.0000000E-24
  1.2200000E-03    1.0000004E-24
  1.2550000E-03    1.0000003E-24
  1.2900000E-03    1.0000013E-24
  1.3250000E-03    1.0000012E-24
  1.3600000E-03    9.9999884E-25
  1.3950000E-03    9.9999805E-25
  1.4299999E-03    9.9999972E-25
  1.4650000E-03    1.0000011E-24
  1.5000000E-03    1.0000009E-24
  1.5350000E-03    1.0000002E-24
  1.5700000E-03    9.9999953E-25
  1.6050000E-03    9.9999953E-25
  1.6400000E-03    9.9999992E-25
  1.6749999E-03    1.0000001E-24
  1.7100000E-03    1.0000001E-24
  1.7450000E-03    1.0000000E-24
  1.7800000E-03    1.0000002E-24
  1.8150000E-03    1.0000009E-24
  1.8500000E-03    1.0000008E-24
  1.8850000E-03    9.9999953E-25
  1.9200000E-03    9.9999953E-25
  1.9550000E-03    1.0000001E-24
  1.9900000E-03    9.9999992E-25
  2.0250001E-03    1.0000003E-24
  2.0600001E-03    1.0000014E-24
  2.0949999E-03    1.0000007E-24
  2.1299999E-03    9.9999824E-25
  2.1650000E-03    9.9999903E-25
  2.2000000E-03    1.0000047E-24
  2.2350000E-03    1.0000038E-24
  2.2700001E-03    9.9999085E-25
  2.3050001E-03    9.9999075E-25
  2.3399999E-03    1.0000179E-24
  2.3749999E-03    1.0000220E-24
  2.4100000E-03    9.9996856E-25
  2.4450000E-03    9.9995456E-25
  2.4800000E-03    1.0000572E-24
  2.5150001E-03    1.0000932E-24
  2.5500001E-03    9.9989293E-25
  2.5849999E-03    9.9980438E-25
  2.6199999E-03    1.0001926E-24
  2.6550000E-03    1.0004059E-24
  2.6900000E-03    9.9966909E-25
  2.7250000E-03    9.9917448E-25
  2.7600001E-03    1.0005399E-24
  2.7950001E-03    1.0016477E-24
  2.8299999E-03    9.9917822E-25
  2.8649999E-03    9.9676924E-25
  2.9000000E-03    1.0011177E-24
  2.9350000E-03    1.0062250E-24
  2.9700000E-03    9.9880835E-25
  3.0050001E-03    9.8824688E-25
  3.0400001E-03    1.0004177E-24
  3.0749999E-03    1.0217299E-24
  3.1099999E-03    1.0027090E-24
  3.1450000E-03    9.6072530E-25
  3.1800000E-03    9.8849813E-25
  3.2150000E-03    1.0692220E-24
  3.2500001E-03    1.0328142E-24
  3.2850001E-03    8.8138847E-25
  3.3199999E-03    9.1983144E-25
  3.3549999E-03    1.1967485E-24
  3.3900000E-03    1.1791456E-24
  3.4250000E-03    6.8605034E-25
  3.4600000E-03    6.2375518E-25
  3.4950001E-03    1.4771603E-24
  3.5300001E-03    1.7527829E-24
  3.5649999E-03    3.2110218E-25
  3.5999999E-03   -4.4535650E-25
  3.6350000E-03    1.8732303E-24
  3.6700000E-03    3.6735896E-24
  3.7050000E-03    7.1857217E-26
  3.7400001E-03   -3.7731529E-24
  3.7750001E-03    1.5374324E-24
  3.8099999E-03    9.2256936E-24
  3.8449999E-03    1.9329289E-24
  3.8800000E-03   -1.2664299E-23
  3.9149998E-03   -3.6979949E-24
  3.9499998E-03    2.2809280E-23
  3.9849998E-03    1.3947507E-23
  4.0199999E-03   -3.2248508E-23
  4.0549999E-03   -2.8418389E-23
  4.0899999E-03    4.8912409E-23
  4.1250000E-03    6.1159345E-23
  4.1600000E-03   -6.3000584E-23
  4.1950000E-03   -1.1342929E-22
  4.2300001E-03    7.6993392E-23
  4.2650001E-03    2.0651723E-22
  4.3000001E-03   -7.0240005E-23
  4.3350002E-03   -3.4998020E-22
  4.3700002E-03    2.5493832E-23
  4.4049998E-03    5.7229837E-22
  4.4399998E-03    1.1125014E-22
  4.4749998E-03   -8.8417318E-22
  4.5099999E-03   -4.1001506E-22
  4.5449999E-03    1.2995746E-21
  4.5799999E-03    1.0028158E-21
  4.6150000E-03   -1.7822143E-21
  4.6500000E-03   -2.0662703E-21
  4.6850001E-03    2.2395255E-21
  4.7200001E-03    3.8635744E-21
  4.7550001E-03   -2.4289628E-21
  4.7900002E-03   -6.7073010E-21
  4.8250002E-03    1.8974213E-21
  4.8600002E-03    1.0952451E-20
  4.8949998E-03    1.7848400E-22
  4.9299998E-03   -1.6862216E-20
  4.9649999E-03   -5.1191038E-21
  4.9999999E-03    2.4431540E-20
  5.0349999E-03    1.4941632E-20
  5.0700000E-03   -3.2984241E-20
  5.1050000E-03   -3.2452195E-20
  5.1400000E-03    4.0607266E-20
  5.1750001E-03    6.1255846E-20
  5.2100001E-03   -4.3236110E-20
  5.2450001E-03   -1.0538386E-19
  5.2800002E-03    3.3497907E-20
  5.3150002E-03    1.6840423E-19
  5.3500002E-03    7.5079030E-22
  5.3849998E-03   -2.5152725E-19
  5.4199998E-03   -7.7832422E-20
  5.4549999E-03    3.5039572E-19
  5.4899999E-03    2.2323214E-19
  5.5249999E-03   -4.4998139E-19
  5.5600000E-03   -4.6913228E-19
  5.5950000E-03    5.1740401E-19
  5.6300000E-03    8.5121714E-19
  5.6650001E-03   -4.9262990E-19
  5.7000001E-03   -1.4006244E-18
  5.7350001E-03    2.7806263E-19
  5.7700002E-03    2.1286542E-18
  5.8050002E-03    2.7087547E-19
  5.8400002E-03   -3.0013686E-18
  5.8749998E-03   -1.3498189E-18
  5.9099998E-03    3.9019561E-18
  5.9449999E-03    3.1974753E-18
  5.9799999E-03   -4.5801888E-18
  6.0149999E-03   -6.0655579E-18
  6.0500000E-03    4.5921631E-18
  6.0850000E-03    1.0154077E-17
  6.1200000E-03   -3.2394725E-18
  6.1550001E-03   -1.5497687E-17
  6.1900001E-03   -4.7364755E-19
  6.2250001E-03    2.1790659E-17
  6.2600002E-03    7.8346693E-18
  6.2950002E-03   -2.8144946E-17
  6.3299998E-03   -2.0323909E-17
  6.3649998E-03    3.2791488E-17
  6.3999998E-03    3.9364963E-17
  6.4349999E-03   -3.2761282E-17
  6.4699999E-03   -6.5859439E-17
  6.5049999E-03    2.3622133E-17
  6.5400000E-03    9.9447180E-17
  6.5750000E-03    6.0157010E-19
  6.6100000E-03   -1.3746212E-16
  6.6450001E-03   -4.7140878E-17
  6.6800001E-03    1.7361650E-16
  6.7150001E-03    1.2358690E-16
  6.7500002E-03   -1.9655414E-16
  6.7850002E-03   -2.3612039E-16
  6.8199998E-03    1.8856870E-16
  6.8549998E-03    3.8662514E-16
  6.8899998E-03   -1.2498231E-16
  6.9249999E-03   -5.6855684E-16
  6.9599999E-03   -2.5095659E-17
  6.9949999E-03    7.6168495E-16
  7.0300000E-03    2.9571985E-16
  7.0650000E-03   -9.2623720E-16
  7.1000000E-03   -7.1776624E-16
  7.1350001E-03    9.9754340E-16
  7.1700001E-03    1.3084003E-15
  7.2050001E-03   -8.8301295E-16
  7.2400002E-03   -2.0559243E-15
  7.2750002E-03    4.6403043E-16
  7.3099998E-03    2.9004651E-15
  7.3449998E-03    3.9398499E-16
  7.3799998E-03   -3.7124416E-15
  7.4149999E-03   -1.8199151E-15
  7.4499999E-03    4.2727569E-15
  7.4850000E-03    3.9007239E-15
  7.5200000E-03   -4.2610780E-15
  7.5550000E-03   -6.6294685E-15
  7.5900001E-03    3.2609945E-15
  7.6250001E-03    9.8395447E-15
  7.6600001E-03   -7.9273279E-16
  7.6950002E-03   -1.3132124E-14
  7.7300002E-03   -3.6157054E-15
  7.7650002E-03    1.5810304E-14
  7.7999998E-03    1.0310332E-14
  7.8349998E-03   -1.6840977E-14
  7.8699999E-03   -1.9343488E-14
  7.9049999E-03    1.4872542E-14
  7.9399999E-03    3.0265287E-14
  7.9750000E-03   -8.3408757E-15
  8.0100000E-03   -4.1898549E-14
  8.0450000E-03   -4.3048353E-15
  8.0800001E-03    5.2141590E-14
  8.1150001E-03    2.4234809E-14
  8.1500001E-03   -5.7864459E-14
  8.1850002E-03   -5.1729380E-14
  8.2200002E-03    5.4982433E-14
  8.2550002E-03    8.5562552E-14
  8.2900003E-03   -3.8798053E-14
  8.3250003E-03   -1.2236056E-13
  8.3600003E-03    4.6931838E-15
  8.3950004E-03    1.5607376E-13
  8.4300004E-03    5.0784887E-14
  8.4650004E-03   -1.7775484E-13
  8.5000005E-03   -1.2846951E-13
  8.5349996E-03    1.7587413E-13
  8.5699996E-03    2.2488475E-13
  8.6049996E-03   -1.3740505E-13
  8.6399997E-03   -3.3058045E-13
  8.6749997E-03    4.9859764E-14
  8.7099997E-03    4.2889916E-13
  8.7449998E-03    9.5675461E-14
  8.7799998E-03   -4.9569794E-13
  8.8149998E-03   -3.0066664E-13
  8.8499999E-03    5.0060650E-13
  8.8849999E-03    5.5487304E-13
  8.9199999E-03   -4.1034453E-13
  8.9550000E-03   -8.3248751E-13
  8.9900000E-03    1.9439925E-13
  9.0250000E-03    1.0897673E-12
  9.0600001E-03    1.6703763E-13
  9.0950001E-03   -1.2654536E-12
  9.1300001E-03   -6.7356082E-13
  9.1650002E-03    1.2852650E-12
  9.2000002E-03    1.2948708E-12
  9.2350002E-03   -1.0714128E-12
  9.2700003E-03   -1.9630415E-12
  9.3050003E-03    5.5737993E-13
  9.3400003E-03    2.5694104E-12
  9.3750004E-03    2.9294988E-13
  9.4100004E-03   -2.9689320E-12
  9.4450004E-03   -1.4641432E-12
  9.4799995E-03    2.9943645E-12
  9.5149996E-03    2.8699280E-12
  9.5499996E-03   -2.4814152E-12
  9.5849996E-03   -4.3408588E-12
  9.6199997E-03    1.3039458E-12
  9.6549997E-03    5.6246691E-12
  9.6899997E-03    5.8439093E-13
  9.7249998E-03   -6.4044698E-12
  9.7599998E-03   -3.1086637E-12
  9.7949998E-03    6.3380191E-12
  9.8299999E-03    6.0405990E-12
  9.8649999E-03   -5.1177361E-12
  9.8999999E-03   -8.9867870E-12
  9.9350000E-03    2.5460935E-12
  9.9700000E-03    1.1407351E-11
  1.0005000E-02    1.3843822E-12
  1.0040000E-02   -1.2672283E-11
  1.0075000E-02   -6.4224498E-12
  1.0110000E-02    1.2156434E-11
  1.0145000E-02    1.2019577E-11
  1.0180000E-02   -9.3662135E-12
  1.0215000E-02   -1.7340279E-11
  1.0250000E-02    4.0813026E-12
  1.0285000E-02    2.1335673E-11
  1.0320000E-02    3.5145220E-12
  1.0355000E-02   -2.2884864E-11
  1.0390000E-02   -1.2745392E-11
  1.0425000E-02    2.0994914E-11
  1.0460000E-02    2.2430236E-11
  1.0495000E-02   -1.5034174E-11
  1.0530000E-02   -3.0970285E-11
  1.0565000E-02    4.9583159E-12
  1.0600000E-02    3.6546793E-11
  1.0635000E-02    8.5208819E-12
  1.0670000E-02   -3.7417930E-11
  1.0705000E-02   -2.3875481E-11
  1.0740000E-02    3.2279186E-11
  1.0775000E-02    3.8852716E-11
  1.0810000E-02   -2.0627137E-11
  1.0845000E-02   -5.0737681E-11
  1.0880000E-02    3.0495077E-12
  1.0915000E-02    5.6774838E-11
  1.0950000E-02    1.8639170E-11
  1.0985000E-02   -5.4695654E-11
  1.1020000E-02   -4.1481617E-11
  1.1055000E-02    4.3264531E-11
  1.1090000E-02    6.1712677E-11
  1.1125000E-02   -2.2731310E-11
  1.1160000E-02   -7.5328549E-11
  1.1195000E-02   -4.9243734E-12
  1.1230000E-02    7.8819680E-11
  1.1265000E-02    3.6051426E-11
  1.1300000E-02   -6.9948068E-11
  1.1335000E-02   -6.5739809E-11
  1.1370000E-02    4.8409939E-11
  1.1405000E-02    8.8568361E-11
  1.1440000E-02   -1.6219017E-11
  1.1475000E-02   -9.9589774E-11
  1.1510000E-02   -2.2324448E-11
  1.1545000E-02    9.5380225E-11
  1.1580000E-02    6.1142633E-11
  1.1615000E-02   -7.4938666E-11
  1.1650000E-02   -9.3333709E-11
  1.1685000E-02    4.0221087E-11
  1.1720000E-02    1.1243780E-10
  1.1755000E-02    3.8625804E-12
  1.1790000E-02   -1.1379212E-10
  1.1825000E-02   -5.0070632E-11
  1.1860000E-02    9.5696270E-11
  1.1895000E-02    9.0032530E-11
  1.1930000E-02   -6.0098156E-11
  1.1965000E-02   -1.1584873E-10
  1.2000000E-02    1.2577511E-11
  1.2035000E-02    1.2177966E-10
  1.2070000E-02    3.8462945E-11
  1.2105000E-02   -1.0564857E-10
  1.2140000E-02   -8.3305404E-11
  1.2175000E-02    6.9610373E-11
  1.2210000E-02    1.1286008E-10
  1.2245000E-02   -2.0047502E-11
  1.2280000E-02   -1.2065555E-10
  1.2315000E-02   -3.3475913E-11
  1.2350000E-02    1.0443037E-10
  1.2385000E-02    8.0065558E-11
  1.2420000E-02   -6.6917132E-11
  1.2455000E-02   -1.0981001E-10
  1.2490000E-02    1.5545180E-11
  1.2525000E-02    1.1604546E-10
  1.2560000E-02    3.8968894E-11
  1.2595000E-02   -9.7014813E-11
  1.2630000E-02   -8.4884710E-11
  1.2665000E-02    5.6473038E-11
  1.2700000E-02    1.1206047E-10
  1.2735000E-02   -3.0286817E-12
  1.2770000E-02   -1.1431738E-10
  1.2805000E-02   -5.1684886E-11
  1.2840000E-02    9.0960246E-11
  1.2875000E-02    9.5622170E-11
  1.2910000E-02   -4.7046120E-11
  1.2945000E-02   -1.1912279E-10
  1.2980000E-02   -7.7318941E-12
  1.3015000E-02    1.1719964E-10
  1.3050000E-02    6.1323453E-11
  1.3085000E-02   -9.0710175E-11
  1.3120000E-02   -1.0221869E-10
  1.3155000E-02    4.6060582E-11
  1.3190000E-02    1.2220486E-10
  1.3225000E-02    6.5010592E-12
  1.3260000E-02   -1.1823977E-10
  1.3295000E-02   -5.5545873E-11
  1.3330000E-02    9.2933279E-11
  1.3365000E-02    9.1340581E-11
  1.3400000E-02   -5.3531391E-11
  1.3435000E-02   -1.0814664E-10
  1.3470000E-02    9.7148817E-12
  1.3505000E-02    1.0530794E-10
  1.3540000E-02    2.9121323E-11
  1.3575000E-02   -8.6857070E-11
  1.3610000E-02   -5.6287648E-11
  1.3645000E-02    5.9832382E-11
  1.3680000E-02    6.9205024E-11
  1.3715000E-02   -3.1911671E-11
  1.3750000E-02   -6.9451042E-11
  1.3785000E-02    9.1487937E-12
  1.3820000E-02    6.1563546E-11
  1.3855000E-02    5.5020224E-12
  1.3890000E-02   -5.1091163E-11
  1.3925000E-02   -1.2481842E-11
  1.3960000E-02    4.2583527E-11
  1.3995000E-02    1.4734268E-11
  1.4030000E-02   -3.8231529E-11
  1.4065000E-02   -1.6049649E-11
  1.4100000E-02    3.7622315E-11
  1.4135000E-02    1.9385198E-11
  1.4170000E-02   -3.8578446E-11
  1.4205000E-02   -2.5890288E-11
  1.4240000E-02    3.8530252E-11
  1.4275000E-02    3.4933990E-11
  1.4310000E-02   -3.5693736E-11
  1.4345000E-02   -4.4898044E-11
  1.4380000E-02    2.9558540E-11
  1.4415000E-02    5.4171733E-11
  1.4450000E-02   -2.0649319E-11
  1.4485000E-02   -6.1842739E-11
  1.4520000E-02    9.8738968E-12
  1.4555000E-02    6.7904952E-11
  1.4590000E-02    2.2467878E-12
  1.4625000E-02   -7.2936233E-11
  1.4660000E-02   -1.6194797E-11
  1.4695000E-02    7.7230188E-11
  1.4730000E-02    3.3464662E-11
  1.4765000E-02   -7.9760552E-11
  1.4800000E-02   -5.5756209E-11
  1.4835000E-02    7.7535138E-11
  1.4870000E-02    8.3470446E-11
  1.4905000E-02   -6.5913559E-11
  1.4940000E-02   -1.1396959E-10
  1.4975000E-02    4.0515469E-11
  1.5010000E-02    1.4111670E-10
  1.5045000E-02    3.0121402E-13
  1.5080000E-02   -1.5658336E-10
  1.5115000E-02   -5.3812378E-11
  1.5150000E-02    1.5194616E-10
  1.5185000E-02    1.1192983E-10
  1.5220000E-02   -1.2218922E-10
  1.5255000E-02   -1.6275810E-10
  1.5290000E-02    6.8278702E-11
  1.5325000E-02    1.9384219E-10
  1.5360000E-02    2.5254878E-12
  1.5395000E-02   -1.9441539E-10
  1.5430000E-02   -7.5019442E-11
  1.5465000E-02    1.6241343E-10
  1.5500000E-02    1.3212018E-10
  1.5535000E-02   -1.0590839E-10
  1.5570000E-02   -1.6202018E-10
  1.5605000E-02    3.7526586E-11
  1.5640000E-02    1.5607202E-10
  1.5675001E-02    1.9862445E-11
  1.5710000E-02   -1.2418316E-10
  1.5745001E-02   -5.3167061E-11
  1.5780000E-02    8.2717028E-11
  1.5814999E-02    6.1541147E-11
  1.5850000E-02   -4.1702395E-11
  1.5884999E-02   -3.8159500E-11
  1.5920000E-02    3.4175999E-11
  1.5954999E-02    2.2869512E-11
  1.5990000E-02   -3.6768852E-11
  1.6024999E-02   -8.3556469E-12
  1.6060000E-02    5.9766608E-11
  1.6094999E-02    1.5686978E-11
  1.6130000E-02   -9.0610866E-11
  1.6164999E-02   -6.9579023E-11
  1.6200000E-02    5.7109213E-11
  1.6235000E-02    6.0737831E-11
  1.6270000E-02   -1.0254887E-10
  1.6305000E-02   -1.9401927E-10
  1.6340001E-02   -8.7627725E-11
  1.6375000E-02    5.2760244E-12
  1.6410001E-02   -1.2564928E-10
  1.6445000E-02   -3.4820299E-10
  1.6480001E-02   -4.0930717E-10
  1.6515000E-02   -3.4691627E-10
  1.6550001E-02   -4.2111686E-10
  1.6585000E-02   -7.0043760E-10
  1.6620001E-02   -9.8043795E-10
  1.6655000E-02   -1.1326023E-09
  1.6690001E-02   -1.2972120E-09
  1.6725000E-02   -1.6433851E-09
  1.6759999E-02   -2.1287703E-09
  1.6795000E-02   -2.6272466E-09
  1.6829999E-02   -3.1564655E-09
  1.6865000E-02   -3.8323793E-09
  1.6899999E-02   -4.6952229E-09
  1.6935000E-02   -5.7276792E-09
  1.6969999E-02   -6.9716894E-09
  1.7005000E-02   -8.4828846E-09
  1.7039999E-02   -1.0240774E-08
  1.7075000E-02   -1.2260059E-08
  1.7109999E-02   -1.4713483E-08
  1.7145000E-02   -1.7757277E-08
  1.7180000E-02   -2.1315520E-08
  1.7215000E-02   -2.5282354E-08
  1.7250000E-02   -2.9884667E-08
  1.7285001E-02   -3.5540886E-08
  1.7320000E-02   -4.2357637E-08
  1.7355001E-02   -5.0122281E-08
  1.7390000E-02   -5.8896511E-08
  1.7425001E-02   -6.9257766E-08
  1.7460000E-02   -8.1742776E-08
  1.7495001E-02   -9.6366939E-08
  1.7530000E-02   -1.1300547E-07
  1.7565001E-02   -1.3204756E-07
  1.7600000E-02   -1.5432333E-07
  1.7635001E-02   -1.8045299E-07
  1.7670000E-02   -2.1059894E-07
  1.7704999E-02   -2.4494082E-07
  1.7740000E-02   -2.8419032E-07
  1.7774999E-02   -3.2948935E-07
  1.7810000E-02   -3.8185979E-07
  1.7844999E-02   -4.4191995E-07
  1.7880000E-02   -5.1027394E-07
  1.7914999E-02   -5.8813055E-07
  1.7950000E-02   -6.7730184E-07
  1.7984999E-02   -7.7949937E-07
  1.8020000E-02   -8.9592243E-07
  1.8054999E-02   -1.0278296E-06
  1.8090000E-02   -1.1773230E-06
  1.8124999E-02   -1.3471757E-06
  1.8160000E-02   -1.5399683E-06
  1.8195000E-02   -1.7578686E-06
  1.8230001E-02   -2.0033967E-06
  1.8265000E-02   -2.2800577E-06
  1.8300001E-02   -2.5920110E-06
  1.8335000E-02   -2.9433631E-06
  1.8370001E-02   -3.3380977E-06
  1.8405000E-02   -3.7807101E-06
  1.8440001E-02   -4.2767228E-06
  1.8475000E-02   -4.8324750E-06
  1.8510001E-02   -5.4544603E-06
  1.8545000E-02   -6.1491301E-06
  1.8580001E-02   -6.9235698E-06
  1.8615000E-02   -7.7862032E-06
  1.8650001E-02   -8.7464896E-06
  1.8685000E-02   -9.8140354E-06
  1.8719999E-02   -1.0998595E-05
  1.8755000E-02   -1.2311129E-05
  1.8789999E-02   -1.3764409E-05
  1.8825000E-02   -1.5372258E-05
  1.8859999E-02   -1.7148697E-05
  1.8895000E-02   -1.9108427E-05
  1.8929999E-02   -2.1267952E-05
  1.8965000E-02   -2.3645729E-05
  1.8999999E-02   -2.6261212E-05
  1.9035000E-02   -2.9134293E-05
  1.9069999E-02   -3.2285931E-05
  1.9105000E-02   -3.5739125E-05
  1.9140000E-02   -3.9519095E-05
  1.9175000E-02   -4.3652366E-05
  1.9210000E-02   -4.8165959E-05
  1.9245001E-02   -5.3088221E-05
  1.9280000E-02   -5.8450310E-05
  1.9315001E-02   -6.4286178E-05
  1.9350000E-02   -7.0630886E-05
  1.9385001E-02   -7.7520002E-05
  1.9420000E-02   -8.4991181E-05
  1.9455001E-02   -9.3085473E-05
  1.9490000E-02   -1.0184632E-04
  1.9525001E-02   -1.1131773E-04
  1.9560000E-02   -1.2154462E-04
  1.9595001E-02   -1.3257454E-04
  1.9630000E-02   -1.4445804E-04
  1.9664999E-02   -1.5724718E-04
  1.9700000E-02   -1.7099478E-04
  1.9734999E-02   -1.8575543E-04
  1.9770000E-02   -2.0158594E-04
  1.9804999E-02   -2.1854503E-04
  1.9840000E-02   -2.3669316E-04
  1.9874999E-02   -2.5609220E-04
  1.9910000E-02   -2.7680493E-04
  1.9944999E-02   -2.9889497E-04
  1.9980000E-02   -3.2242751E-04
  2.0014999E-02   -3.4746938E-04
  2.0050000E-02   -3.7408739E-04
  2.0085000E-02   -4.0234748E-04
  2.0120000E-02   -4.3231589E-04
  2.0155000E-02   -4.6405930E-04
  2.0190001E-02   -4.9764448E-04
  2.0225000E-02   -5.3313695E-04
  2.0260001E-02   -5.7059980E-04
  2.0295000E-02   -6.1009510E-04
  2.0330001E-02   -6.5168447E-04
  2.0365000E-02   -6.9542718E-04
  2.0400001E-02   -7.4137963E-04
  2.0435000E-02   -7.8959466E-04
  2.0470001E-02   -8.4012077E-04
  2.0505000E-02   -8.9300383E-04
  2.0540001E-02   -9.4828586E-04
  2.0575000E-02   -1.0060027E-03
  2.0609999E-02   -1.0661826E-03
  2.0645000E-02   -1.1288486E-03
  2.0679999E-02   -1.1940192E-03
  2.0715000E-02   -1.2617047E-03
  2.0749999E-02   -1.3319054E-03
  2.0785000E-02   -1.4046130E-03
  2.0819999E-02   -1.4798115E-03
  2.0855000E-02   -1.5574771E-03
  2.0889999E-02   -1.6375743E-03
  2.0925000E-02   -1.7200559E-03
  2.0959999E-02   -1.8048631E-03
  2.0995000E-02   -1.8919260E-03
  2.1029999E-02   -1.9811632E-03
  2.1065000E-02   -2.0724791E-03
  2.1100000E-02   -2.1657653E-03
  2.1135001E-02   -2.2608987E-03
  2.1170000E-02   -2.3577407E-03
  2.1205001E-02   -2.4561393E-03
  2.1240000E-02   -2.5559308E-03
  2.1275001E-02   -2.6569308E-03
  2.1310000E-02   -2.7589414E-03
  2.1345001E-02   -2.8617501E-03
  2.1380000E-02   -2.9651257E-03
  2.1415001E-02   -3.0688252E-03
  2.1450000E-02   -3.1725909E-03
  2.1485001E-02   -3.2761430E-03
  2.1520000E-02   -3.3791871E-03
  2.1555001E-02   -3.4814200E-03
  2.1590000E-02   -3.5825216E-03
  2.1624999E-02   -3.6821545E-03
  2.1660000E-02   -3.7799678E-03
  2.1694999E-02   -3.8756002E-03
  2.1730000E-02   -3.9686770E-03
  2.1764999E-02   -4.0588127E-03
  2.1800000E-02   -4.1456092E-03
  2.1834999E-02   -4.2286594E-03
  2.1870000E-02   -4.3075522E-03
  2.1904999E-02   -4.3818648E-03
  2.1940000E-02   -4.4511706E-03
  2.1974999E-02   -4.5150393E-03
  2.2010000E-02   -4.5730332E-03
  2.2045000E-02   -4.6247183E-03
  2.2080000E-02   -4.6696672E-03
  2.2115000E-02   -4.7074468E-03
  2.2150001E-02   -4.7376291E-03
  2.2185000E-02   -4.7597960E-03
  2.2220001E-02   -4.7735372E-03
  2.2255000E-02   -4.7784550E-03
  2.2290001E-02   -4.7741621E-03
  2.2325000E-02   -4.7602896E-03
  2.2360001E-02   -4.7364836E-03
  2.2395000E-02   -4.7024088E-03
  2.2430001E-02   -4.6577523E-03
  2.2465000E-02   -4.6022302E-03
  2.2500001E-02   -4.5355838E-03
  2.2535000E-02   -4.4575804E-03
  2.2569999E-02   -4.3680174E-03
  2.2605000E-02   -4.2667291E-03
  2.2639999E-02   -4.1535846E-03
  2.2675000E-02   -4.0284931E-03
  2.2709999E-02   -3.8913980E-03
  2.2745000E-02   -3.7422841E-03
  2.2779999E-02   -3.5811828E-03
  2.2815000E-02   -3.4081673E-03
  2.2849999E-02   -3.2233570E-03
  2.2885000E-02   -3.0269232E-03
  2.2919999E-02   -2.8190804E-03
  2.2955000E-02   -2.6000866E-03
  2.2990000E-02   -2.3702539E-03
  2.3025000E-02   -2.1299492E-03
  2.3060000E-02   -1.8795871E-03
  2.3095001E-02   -1.6196289E-03
  2.3130000E-02   -1.3505877E-03
  2.3165001E-02   -1.0730270E-03
  2.3200000E-02   -7.8755477E-04
  2.3235001E-02   -4.9482891E-04
  2.3270000E-02   -1.9555543E-04
  2.3305001E-02    1.0951878E-04
  2.3340000E-02    4.1960392E-04
  2.3375001E-02    7.3386705E-04
  2.3410000E-02    1.0514399E-03
  2.3445001E-02    1.3714227E-03
  2.3480000E-02    1.6928804E-03
  2.3514999E-02    2.0148440E-03
  2.3550000E-02    2.3363186E-03
  2.3584999E-02    2.6562957E-03
  2.3620000E-02    2.9737551E-03
  2.3654999E-02    3.2876558E-03
  2.3690000E-02    3.5969366E-03
  2.3724999E-02    3.9005387E-03
  2.3760000E-02    4.1974140E-03
  2.3794999E-02    4.4865138E-03
  2.3830000E-02    4.7667897E-03
  2.3864999E-02    5.0372216E-03
  2.3900000E-02    5.2968063E-03
  2.3934999E-02    5.5445554E-03
  2.3970000E-02    5.7795150E-03
  2.4005000E-02    6.0007768E-03
  2.4040001E-02    6.2074694E-03
  2.4075000E-02    6.3987547E-03
  2.4110001E-02    6.5738456E-03
  2.4145000E-02    6.7320201E-03
  2.4180001E-02    6.8726172E-03
  2.4215000E-02    6.9950344E-03
  2.4250001E-02    7.0987297E-03
  2.4285000E-02    7.1832361E-03
  2.4320001E-02    7.2481679E-03
  2.4355000E-02    7.2932108E-03
  2.4390001E-02    7.3181228E-03
  2.4425000E-02    7.3227631E-03
  2.4460001E-02    7.3070792E-03
  2.4495000E-02    7.2710807E-03
  2.4529999E-02    7.2148670E-03
  2.4565000E-02    7.1386476E-03
  2.4599999E-02    7.0427102E-03
  2.4635000E-02    6.9274292E-03
  2.4669999E-02    6.7932690E-03
  2.4705000E-02    6.6407751E-03
  2.4739999E-02    6.4705787E-03
  2.4775000E-02    6.2833987E-03
  2.4809999E-02    6.0800291E-03
  2.4845000E-02    5.8613452E-03
  2.4879999E-02    5.6283013E-03
  2.4915000E-02    5.3819031E-03
  2.4950000E-02    5.1232199E-03
  2.4985000E-02    4.8533962E-03
  2.5020000E-02    4.5736306E-03
  2.5055001E-02    4.2851577E-03
  2.5090000E-02    3.9892583E-03
  2.5125001E-02    3.6872465E-03
  2.5160000E-02    3.3804679E-03
  2.5195001E-02    3.0702965E-03
  2.5230000E-02    2.7581058E-03
  2.5265001E-02    2.4452738E-03
  2.5300000E-02    2.1332013E-03
  2.5335001E-02    1.8232750E-03
  2.5370000E-02    1.5168439E-03
  2.5405001E-02    1.2152427E-03
  2.5440000E-02    9.1979012E-04
  2.5474999E-02    6.3176401E-04
  2.5510000E-02    3.5239127E-04
  2.5544999E-02    8.2839746E-05
  2.5580000E-02   -1.7578210E-04
  2.5614999E-02   -4.2241567E-04
  2.5650000E-02   -6.5607578E-04
  2.5684999E-02   -8.7586913E-04
  2.5720000E-02   -1.0809776E-03
  2.5754999E-02   -1.2706612E-03
  2.5790000E-02   -1.4442820E-03
  2.5824999E-02   -1.6012976E-03
  2.5860000E-02   -1.7412560E-03
  2.5895000E-02   -1.8638056E-03
  2.5930000E-02   -1.9687014E-03
  2.5965000E-02   -2.0558063E-03
  2.6000001E-02   -2.1250835E-03
  2.6035000E-02   -2.1765896E-03
  2.6070001E-02   -2.2104932E-03
  2.6105000E-02   -2.2270805E-03
  2.6140001E-02   -2.2267255E-03
  2.6175000E-02   -2.2098839E-03
  2.6210001E-02   -2.1771118E-03
  2.6245000E-02   -2.1290653E-03
  2.6280001E-02   -2.0664888E-03
  2.6315000E-02   -1.9902035E-03
  2.6350001E-02   -1.9010907E-03
  2.6385000E-02   -1.8001010E-03
  2.6419999E-02   -1.6882622E-03
  2.6455000E-02   -1.5666503E-03
  2.6489999E-02   -1.4363840E-03
  2.6525000E-02   -1.2986261E-03
  2.6559999E-02   -1.1545601E-03
  2.6595000E-02   -1.0053905E-03
  2.6629999E-02   -8.5235492E-04
  2.6665000E-02   -6.9669256E-04
  2.6699999E-02   -5.3962506E-04
  2.6735000E-02   -3.8237142E-04
  2.6769999E-02   -2.2613064E-04
  2.6805000E-02   -7.2065312E-05
  2.6839999E-02    7.8683428E-05
  2.6875000E-02    2.2501787E-04
  2.6910000E-02    3.6590715E-04
  2.6945001E-02    5.0036656E-04
  2.6980000E-02    6.2747061E-04