 -4.8000002E-03    1.0000000E-24
 -4.7650002E-03    1.0000000E-24
 -4.7300002E-03    1.0000002E-24
 -4.6950001E-03    1.0000001E-24
 -4.6600001E-03    1.0000001E-24
 -4.6250001E-03    1.0000000E-24
 -4.5900000E-03    1.0000000E-24
 -4.5550000E-03    1.0000001E-24
 -4.5200000E-03    1.0000003E-24
 -4.4849999E-03    1.0000002E-24
 -4.4499999E-03    9.9999992E-25
 -4.4149999E-03    9.9999982E-25
 -4.3799998E-03    9.9999992E-25
 -4.3449998E-03    1.0000004E-24
 -4.3100002E-03    1.0000005E-24
 -4.2750002E-03    1.0000001E-24
 -4.2400002E-03    9.9999972E-25
 -4.2050001E-03    9.9999982E-25
 -4.1700001E-03    1.0000001E-24
 -4.1350001E-03    1.0000001E-24
 -4.1000000E-03    9.9999992E-25
 -4.0650000E-03    1.0000002E-24
 -4.0300000E-03    1.0000005E-24
 -3.9949999E-03    1.0000002E-24
 -3.9599999E-03    9.9999972E-25
 -3.9249999E-03    9.9999972E-25
 -3.8900001E-03    1.0000001E-24
 -3.8550000E-03    1.0000003E-24
 -3.8200000E-03    9.9999992E-25
 -3.7849999E-03    9.9999982E-25
 -3.7499999E-03    1.0000000E-24
 -3.7150001E-03    1.0000005E-24
 -3.6800001E-03    1.0000006E-24
 -3.6450000E-03    1.0000002E-24
 -3.6100000E-03    9.9999982E-25
 -3.5750000E-03    9.9999972E-25
 -3.5399999E-03    1.0000000E-24
 -3.5049999E-03    1.0000002E-24
 -3.4700001E-03    1.0000003E-24
 -3.4350001E-03    1.0000004E-24
 -3.4000000E-03    9.9999992E-25
 -3.3650000E-03    9.9999943E-25
 -3.3300000E-03    9.9999972E-25
 -3.2949999E-03    1.0000003E-24
 -3.2599999E-03    1.0000005E-24
 -3.2250001E-03    1.0000002E-24
 -3.1900001E-03    9.9999982E-25
 -3.1550000E-03    9.9999982E-25
 -3.1200000E-03    1.0000001E-24
 -3.0850000E-03    1.0000003E-24
 -3.0499999E-03    9.9999992E-25
 -3.0149999E-03    9.9999972E-25
 -2.9800001E-03    1.0000000E-24
 -2.9450001E-03    1.0000002E-24
 -2.9100000E-03    1.0000001E-24
 -2.8750000E-03    1.0000003E-24
 -2.8400000E-03    1.0000005E-24
 -2.8049999E-03    1.0000001E-24
 -2.7699999E-03    9.9999963E-25
 -2.7350001E-03    9.9999963E-25
 -2.7000001E-03    1.0000004E-24
 -2.6650000E-03    1.0000009E-24
 -2.6300000E-03    1.0000005E-24
 -2.5950000E-03    9.9999953E-25
 -2.5599999E-03    9.9999953E-25
 -2.5249999E-03    1.0000004E-24
 -2.4900001E-03    1.0000007E-24
 -2.4550001E-03    1.0000002E-24
 -2.4200000E-03    9.9999953E-25
 -2.3850000E-03    9.9999943E-25
 -2.3500000E-03    1.0000000E-24
 -2.3149999E-03    1.0000008E-24
 -2.2799999E-03    1.0000008E-24
 -2.2450001E-03    1.0000002E-24
 -2.2100001E-03    9.9999982E-25
 -2.1750000E-03    9.9999992E-25
 -2.1400000E-03    1.0000001E-24
 -2.1050000E-03    1.0000001E-24
 -2.0699999E-03    9.9999933E-25
 -2.0349999E-03    9.9999903E-25
 -2.0000001E-03    1.0000001E-24
 -1.9650001E-03    1.0000013E-24
 -1.9300000E-03    1.0000012E-24
 -1.8950000E-03    1.0000005E-24
 -1.8600000E-03    1.0000000E-24
 -1.8250000E-03    9.9999972E-25
 -1.7900000E-03    9.9999943E-25
 -1.7550000E-03    9.9999982E-25
 -1.7199999E-03    1.0000005E-24
 -1.6850000E-03    1.0000006E-24
 -1.6500000E-03    1.0000000E-24
 -1.6150000E-03    9.9999933E-25
 -1.5800000E-03    9.9999963E-25
 -1.5450000E-03    1.0000002E-24
 -1.5100000E-03    1.0000002E-24
 -1.4750001E-03    1.0000002E-24
 -1.4400000E-03    1.0000006E-24
 -1.4050000E-03    1.0000004E-24
 -1.3700000E-03    9.9999943E-25
 -1.3350000E-03    9.9999913E-25
 -1.3000000E-03    1.0000000E-24
 -1.2650000E-03    1.0000008E-24
 -1.2300001E-03    1.0000004E-24
 -1.1950000E-03    9.9999933E-25
 -1.1600000E-03    9.9999933E-25
 -1.1250000E-03    1.0000003E-24
 -1.0900000E-03    1.0000009E-24
 -1.0550000E-03    1.0000007E-24
 -1.0200000E-03    9.9999982E-25
 -9.8500005E-04    9.9999923E-25
 -9.5000002E-04    9.9999963E-25
 -9.1499998E-04    1.0000003E-24
 -8.8000001E-04    1.0000003E-24
 -8.4499997E-04    1.0000002E-24
 -8.1000000E-04    1.0000002E-24
 -7.7500002E-04    1.0000003E-24
 -7.3999999E-04    1.0000001E-24
 -7.0500001E-04    1.0000001E-24
 -6.6999998E-04    1.0000006E-24
 -6.3500000E-04    1.0000005E-24
 -6.0000003E-04    9.9999972E-25
 -5.6499999E-04    9.9999963E-25
 -5.3000002E-04    1.0000002E-24
 -4.9499999E-04    1.0000001E-24
 -4.6000001E-04    9.9999943E-25
 -4.2500001E-04    9.9999963E-25
 -3.9000000E-04    1.0000005E-24
 -3.5500000E-04    1.0000010E-24
 -3.1999999E-04    1.0000006E-24
 -2.8499999E-04    1.0000000E-24
 -2.5000001E-04    9.9999972E-25
 -2.1499999E-04    9.9999953E-25
 -1.8000000E-04    9.9999953E-25
 -1.4500000E-04    1.0000000E-24
 -1.1000000E-04    1.0000008E-24
 -7.5000004E-05    1.0000016E-24
 -3.9999999E-05    1.0000011E-24
 -4.9999999E-06    9.9999933E-25
  2.9999999E-05    9.9999805E-25
  6.5000000E-05    9.9999903E-25
  9.9999997E-05    1.0000003E-24
  1.3499999E-04    1.0000009E-24
  1.7000000E-04    1.0000008E-24
  2.0500000E-04    1.0000003E-24
  2.3999999E-04    1.0000000E-24
  2.7500000E-04    9.9999992E-25
  3.1000000E-04    9.9999953E-25
  3.4500001E-04    1.0000000E-24
  3.8000001E-04    1.0000012E-24
  4.1499999E-04    1.0000004E-24
  4.4999999E-04    9.9999923E-25
  4.8500000E-04    9.9999963E-25
  5.2000000E-04    1.0000003E-24
  5.5499998E-04    1.0000002E-24
  5.9000001E-04    1.0000002E-24
  6.2499999E-04    9.9999963E-25
  6.6000002E-04    9.9999913E-25
  6.9500000E-04    1.0000004E-24
  7.3000003E-04    1.0000016E-24
  7.6500000E-04    1.0000004E-24
  7.9999998E-04    9.9999923E-25
  8.3500001E-04    9.9999953E-25
  8.6999999E-04    9.9999982E-25
  9.0500002E-04    9.9999982E-25
  9.4000000E-04    1.0000005E-24
  9.7499997E-04    1.0000011E-24
  1.0100000E-03    1.0000005E-24
  1.0450000E-03    9.9999953E-25
  1.0800000E-03    9.9999953E-25
  1.1150000E-03    1.0000002E-24
  1.1500000E-03    1.0000008E-24
  1.1849999E-03    1.0000004E-24
  1.2200000E-03    9.9999943E-25
  1.2550000E-03    9.9999943E-25
  1.2900000E-03    1.0000006E-24
  1.3250000E-03    1.0000010E-24
  1.3600000E-03    1.0000001E-24
  1.3950000E-03    9.9999982E-25
  1.4299999E-03    1.0000001E-24
  1.4650000E-03    1.0000004E-24
  1.5000000E-03    1.0000002E-24
  1.5350000E-03    9.9999943E-25
  1.5700000E-03    9.9999903E-25
  1.6050000E-03    1.0000001E-24
  1.6400000E-03    1.0000012E-24
  1.6749999E-03    9.9999992E-25
  1.7100000E-03    9.9999884E-25
  1.7450000E-03    1.0000005E-24
  1.7800000E-03    1.0000016E-24
  1.8150000E-03    1.0000004E-24
  1.8500000E-03    9.9999963E-25
  1.8850000E-03    9.9999992E-25
  1.9200000E-03    1.0000001E-24
  1.9550000E-03    1.0000003E-24
  1.9900000E-03    1.0000005E-24
  2.0250001E-03    1.0000002E-24
  2.0600001E-03    9.9999982E-25
  2.0949999E-03    9.9999933E-25
  2.1299999E-03    9.9999874E-25
  2.1650000E-03    9.9999953E-25
  2.2000000E-03    1.0000012E-24
  2.2350000E-03    1.0000018E-24
  2.2700001E-03    1.0000010E-24
  2.3050001E-03    9.9999923E-25
  2.3399999E-03    9.9999864E-25
  2.3749999E-03    9.9999963E-25
  2.4100000E-03    1.0000002E-24
  2.4450000E-03    1.0000003E-24
  2.4800000E-03    1.0000011E-24
  2.5150001E-03    1.0000009E-24
  2.5500001E-03    9.9999963E-25
  2.5849999E-03    9.9999923E-25
  2.6199999E-03    9.9999933E-25
  2.6550000E-03    9.9999943E-25
  2.6900000E-03    1.0000006E-24
  2.7250000E-03    1.0000009E-24
  2.7600001E-03    1.0000002E-24
  2.7950001E-03    1.0000012E-24
  2.8299999E-03    1.0000019E-24
  2.8649999E-03    1.0000005E-24
  2.9000000E-03    9.9999982E-25
  2.9350000E-03    9.9999913E-25
  2.9700000E-03    9.9999854E-25
  3.0050001E-03    1.0000004E-24
  3.0400001E-03    1.0000014E-24
  3.0749999E-03    9.9999903E-25
  3.1099999E-03    9.9999874E-25
  3.1450000E-03    1.0000013E-24
  3.1800000E-03    1.0000014E-24
  3.2150000E-03    9.9999913E-25
  3.2500001E-03    9.9999844E-25
  3.2850001E-03    9.9999923E-25
  3.3199999E-03    1.0000001E-24
  3.3549999E-03    1.0000009E-24
  3.3900000E-03    1.0000019E-24
  3.4250000E-03    1.0000020E-24
  3.4600000E-03    9.9999933E-25
  3.4950001E-03    9.9999736E-25
  3.5300001E-03    1.0000009E-24
  3.5649999E-03    1.0000038E-24
  3.5999999E-03    9.9999795E-25
  3.6350000E-03    9.9999322E-25
  3.6700000E-03    1.0000038E-24
  3.7050000E-03    1.0000129E-24
  3.7400001E-03    9.9999479E-25
  3.7750001E-03    9.9997645E-25
  3.8099999E-03    1.0000058E-24
  3.8449999E-03    1.0000426E-24
  3.8800000E-03    9.9999805E-25
  3.9149998E-03    9.9992646E-25
  3.9499998E-03    9.9998967E-25
  3.9849998E-03    1.0001240E-24
  4.0199999E-03    1.0000407E-24
  4.0549999E-03    9.9979137E-25
  4.0899999E-03    9.9988485E-25
  4.1250000E-03    1.0003383E-24
  4.1600000E-03    1.0002733E-24
  4.1950000E-03    9.9947415E-25
  4.2300001E-03    9.9941518E-25
  4.2650001E-03    1.0007793E-24
  4.3000001E-03    1.0011737E-24
  4.3350002E-03    9.9892194E-25
  4.3700002E-03    9.9776143E-25
  4.4049998E-03    1.0013405E-24
  4.4399998E-03    1.0040919E-24
  4.4749998E-03    9.9865452E-25
  4.5099999E-03    9.9281340E-25
  4.5449999E-03    1.0006095E-24
  4.5799999E-03    1.0121360E-24
  4.6150000E-03    1.0018313E-24
  4.6500000E-03    9.8033234E-25
  4.6850001E-03    9.9225045E-25
  4.7200001E-03    1.0304613E-24
  4.7550001E-03    1.0202248E-24
  4.7900002E-03    9.5528699E-25
  4.8250002E-03    9.5570735E-25
  4.8600002E-03    1.0612357E-24
  4.8949998E-03    1.0877028E-24
  4.9299998E-03    9.2422451E-25
  4.9649999E-03    8.3840739E-25
  4.9999999E-03    1.0780883E-24
  5.0349999E-03    1.2805786E-24
  5.0700000E-03    9.5272852E-25
  5.1050000E-03    5.3865725E-25
  5.1400000E-03    9.4484622E-25
  5.1750001E-03    1.7180612E-24
  5.2100001E-03    1.2946073E-24
  5.2450001E-03   -5.1979826E-26
  5.2800002E-03    2.2543263E-25
  5.3150002E-03    2.4312180E-24
  5.3500002E-03    2.6469758E-24
  5.3849998E-03   -7.5550441E-25
  5.4199998E-03   -2.1160259E-24
  5.4549999E-03    2.7999158E-24
  5.4899999E-03    6.4241014E-24
  5.5249999E-03   -1.3241562E-25
  5.5600000E-03   -7.8004341E-24
  5.5950000E-03    4.6355458E-27
  5.6300000E-03    1.4342271E-23
  5.6650001E-03    6.7737301E-24
  5.7000001E-03   -1.7785969E-23
  5.7350001E-03   -1.3944789E-23
  5.7700002E-03    2.5115067E-23
  5.8050002E-03    3.1827089E-23
  5.8400002E-03   -2.5951111E-23
  5.8749998E-03   -5.5128932E-23
  5.9099998E-03    2.3692167E-23
  5.9449999E-03    9.4344142E-23
  5.9799999E-03   -2.4262531E-24
  6.0149999E-03   -1.4242976E-22
  6.0500000E-03   -4.2222859E-23
  6.0850000E-03    2.0437173E-22
  6.1200000E-03    1.3593007E-22
  6.1550001E-03   -2.6119700E-22
  6.1900001E-03   -2.9342533E-22
  6.2250001E-03    2.9606841E-22
  6.2600002E-03    5.4790371E-22
  6.2950002E-03   -2.5440358E-22
  6.3299998E-03   -9.1216060E-22
  6.3649998E-03    6.6710174E-23
  6.3999998E-03    1.3968827E-21
  6.4349999E-03    3.9186755E-22
  6.4699999E-03   -1.9550444E-21
  6.5049999E-03   -1.2730953E-21
  6.5400000E-03    2.4775893E-21
  6.5750000E-03    2.7790342E-21
  6.6100000E-03   -2.7110946E-21
  6.6450001E-03   -5.0980813E-21
  6.6800001E-03    2.2279552E-21
  6.7150001E-03    8.3663721E-21
  6.7500002E-03   -3.3082499E-22
  6.7850002E-03   -1.2507972E-20
  6.8199998E-03   -3.9591675E-21
  6.8549998E-03    1.7063691E-20
  6.8899998E-03    1.1919854E-20
  6.9249999E-03   -2.0869452E-20
  6.9599999E-03   -2.4963416E-20
  6.9949999E-03    2.1719729E-20
  7.0300000E-03    4.4334138E-20
  7.0650000E-03   -1.5933041E-20
  7.1000000E-03   -7.0439644E-20
  7.1350001E-03   -1.9486733E-21
  7.1700001E-03    1.0183909E-19
  7.2050001E-03    3.9263617E-20
  7.2400002E-03   -1.3369199E-19
  7.2750002E-03   -1.0471276E-19
  7.3099998E-03    1.5581097E-19
  7.3449998E-03    2.0692895E-19
  7.3799998E-03   -1.5038894E-19
  7.4149999E-03   -3.5150267E-19
  7.4499999E-03    9.0003875E-20
  7.4850000E-03    5.3606375E-19
  7.5200000E-03    6.3343566E-20
  7.5550000E-03   -7.4291603E-19
  7.5900001E-03   -3.5663892E-19
  7.6250001E-03    9.2939511E-19
  7.6600001E-03    8.3993088E-19
  7.6950002E-03   -1.0166226E-18
  7.7300002E-03   -1.5535819E-18
  7.7650002E-03    8.7890866E-19
  7.7999998E-03    2.5064602E-18
  7.8349998E-03   -3.3751895E-19
  7.8699999E-03   -3.6431797E-18
  7.9049999E-03   -8.3502875E-19
  7.9399999E-03    4.8006002E-18
  7.9750000E-03    2.8919963E-18
  8.0100000E-03   -5.6568934E-18
  8.0450000E-03   -6.0607085E-18
  8.0800001E-03    5.6821406E-18
  8.1150001E-03    1.0452311E-17
  8.1500001E-03   -4.1061883E-18
  8.1850002E-03   -1.5925803E-17
  8.2200002E-03   -7.1238875E-20
  8.2550002E-03    2.1906977E-17
  8.2900003E-03    7.9952126E-18
  8.3250003E-03   -2.7176751E-17
  8.3600003E-03   -2.0756200E-17
  8.3950004E-03    2.9664033E-17
  8.4300004E-03    3.9038779E-17
  8.4650004E-03   -2.6306183E-17
  8.5000005E-03   -6.2593564E-17
  8.5349996E-03    1.3071537E-17
  8.5699996E-03    8.9537940E-17
  8.6049996E-03    1.4731276E-17
  8.6399997E-03   -1.1554593E-16
  8.6749997E-03   -6.1718136E-17
  8.7099997E-03    1.3306103E-16
  8.7449998E-03    1.3113699E-16
  8.7799998E-03   -1.3077008E-16
  8.8149998E-03   -2.2294418E-16
  8.8499999E-03    9.3675868E-17
  8.8849999E-03    3.3129243E-16
  8.9199999E-03   -4.2014058E-18
  8.9550000E-03   -4.4166598E-16
  8.9900000E-03   -1.5520838E-16
  9.0250000E-03    5.2816671E-16
  9.0600001E-03    3.9758469E-16
  9.0950001E-03   -5.5177531E-16
  9.1300001E-03   -7.2485448E-16
  9.1650002E-03    4.6074050E-16
  9.2000002E-03    1.1194307E-15
  9.2350002E-03   -1.9447485E-16
  9.2700003E-03   -1.5348740E-15
  9.3050003E-03   -3.0761592E-16
  9.3400003E-03    1.8873866E-15
  9.3750004E-03    1.0912885E-15
  9.4100004E-03   -2.0508629E-15
  9.4450004E-03   -2.1663507E-15
  9.4799995E-03    1.8590931E-15
  9.5149996E-03    3.4804673E-15
  9.5499996E-03   -1.1192277E-15
  9.5849996E-03   -4.8911265E-15
  9.6199997E-03   -3.5960196E-16
  9.6549997E-03    6.1415890E-15
  9.6899997E-03    2.7200854E-15
  9.7249998E-03   -6.8491372E-15
  9.7599998E-03   -5.9933231E-15
  9.7949998E-03    6.5161021E-15
  9.8299999E-03    1.0023157E-14
  9.8649999E-03   -4.5747136E-15
  9.8999999E-03   -1.4389140E-14
  9.9350000E-03    4.7505848E-16
  9.9700000E-03    1.8345827E-14
  1.0005000E-02    6.1796978E-15
  1.0040000E-02   -2.0802182E-14
  1.0075000E-02   -1.5455844E-14
  1.0110000E-02    2.0368755E-14
  1.0145000E-02    2.6887340E-14
  1.0180000E-02   -1.5499338E-14
  1.0215000E-02   -3.9283498E-14
  1.0250000E-02    4.7457791E-15
  1.0285000E-02    5.0595833E-14
  1.0320000E-02    1.2872193E-14
  1.0355000E-02   -5.7906310E-14
  1.0390000E-02   -3.7406642E-14
  1.0425000E-02    5.7602821E-14
  1.0460000E-02    6.7488509E-14
  1.0495000E-02   -4.5797852E-14
  1.0530000E-02   -9.9897683E-14
  1.0565000E-02    1.9018341E-14
  1.0600000E-02    1.2932373E-13
  1.0635000E-02    2.4855548E-14
  1.0670000E-02   -1.4846453E-13
  1.0705000E-02   -8.5491530E-14
  1.0740000E-02    1.4860116E-13
  1.0775000E-02    1.5901470E-13
  1.0810000E-02   -1.2074524E-13
  1.0845000E-02   -2.3716876E-13
  1.0880000E-02    5.7370063E-14
  1.0915000E-02    3.0702966E-13
  1.0950000E-02    4.5396521E-14
  1.0985000E-02   -3.5157334E-13
  1.1020000E-02   -1.8538360E-13
  1.1055000E-02    3.5135149E-13
  1.1090000E-02    3.5223105E-13
  1.1125000E-02   -2.8737933E-13
  1.1160000E-02   -5.2604730E-13
  1.1195000E-02    1.4512003E-13
  1.1230000E-02    6.7748698E-13
  1.1265000E-02    8.0841976E-14
  1.1300000E-02   -7.6979493E-13
  1.1335000E-02   -3.8215308E-13
  1.1370000E-02    7.6316026E-13
  1.1405000E-02    7.3306823E-13
  1.1440000E-02   -6.2132450E-13
  1.1475000E-02   -1.0889844E-12
  1.1510000E-02    3.1991399E-13
  1.1545000E-02    1.3882345E-12
  1.1580000E-02    1.4463825E-13
  1.1615000E-02   -1.5579112E-12
  1.1650000E-02   -7.4719815E-13
  1.1685000E-02    1.5239286E-12
  1.1720000E-02    1.4290672E-12
  1.1755000E-02   -1.2246437E-12
  1.1790000E-02   -2.0981309E-12
  1.1825000E-02    6.2642014E-13
  1.1860000E-02    2.6355832E-12
  1.1895000E-02    2.6144007E-13
  1.1930000E-02   -2.9098861E-12
  1.1965000E-02   -1.3755955E-12
  1.2000000E-02    2.7972802E-12
  1.2035000E-02    2.5947237E-12
  1.2070000E-02   -2.2066628E-12
  1.2105000E-02   -3.7455863E-12
  1.2140000E-02    1.1050173E-12
  1.2175000E-02    4.6205639E-12
  1.2210000E-02    4.6148106E-13
  1.2245000E-02   -5.0061947E-12
  1.2280000E-02   -2.3559687E-12
  1.2315000E-02    4.7197580E-12
  1.2350000E-02    4.3535640E-12
  1.2385000E-02   -3.6486847E-12
  1.2420000E-02   -6.1609060E-12
  1.2455000E-02    1.7857834E-12
  1.2490000E-02    7.4524466E-12
  1.2525000E-02    7.4734202E-13
  1.2560000E-02   -7.9200587E-12
  1.2595000E-02   -3.6955309E-12
  1.2630000E-02    7.3290870E-12
  1.2665000E-02    6.6884102E-12
  1.2700000E-02   -5.5714604E-12
  1.2735000E-02   -9.2824750E-12
  1.2770000E-02    2.7053663E-12
  1.2805000E-02    1.1022922E-11
  1.2840000E-02    1.0279631E-12
  1.2875000E-02   -1.1516741E-11
  1.2910000E-02   -5.2166912E-12
  1.2945000E-02    1.0505316E-11
  1.2980000E-02    9.3213952E-12
  1.3015000E-02   -7.9236964E-12
  1.3050000E-02   -1.2744865E-11
  1.3085000E-02    3.9345931E-12
  1.3120000E-02    1.4919493E-11
  1.3155000E-02    1.0715463E-12
  1.3190000E-02   -1.5398835E-11
  1.3225000E-02   -6.5135245E-12
  1.3260000E-02    1.3938134E-11
  1.3295000E-02    1.1690253E-11
  1.3330000E-02   -1.0549481E-11
  1.3365000E-02   -1.5876005E-11
  1.3400000E-02    5.5212172E-12
  1.3435000E-02    1.8426274E-11
  1.3470000E-02    6.0329020E-13
  1.3505000E-02   -1.8878874E-11
  1.3540000E-02   -7.0865774E-12
  1.3575000E-02    1.7034971E-11
  1.3610000E-02    1.3091270E-11
  1.3645000E-02   -1.3006913E-11
  1.3680000E-02   -1.7796256E-11
  1.3715000E-02    7.2231331E-12
  1.3750000E-02    2.0519239E-11
  1.3785000E-02   -3.8610499E-13
  1.3820000E-02   -2.0828294E-11
  1.3855000E-02   -6.6144542E-12
  1.3890000E-02    1.8625251E-11
  1.3925000E-02    1.2825137E-11
  1.3960000E-02   -1.4185767E-11
  1.3995000E-02   -1.7375655E-11
  1.4030000E-02    8.1437131E-12
  1.4065000E-02    1.9629758E-11
  1.4100000E-02   -1.4128115E-12
  1.4135000E-02   -1.9315549E-11
  1.4170000E-02   -4.9532418E-12
  1.4205000E-02    1.6606659E-11
  1.4240000E-02    9.9480649E-12
  1.4275000E-02   -1.2127475E-11
  1.4310000E-02   -1.2818562E-11
  1.4345000E-02    6.8651582E-12
  1.4380000E-02    1.3248520E-11
  1.4415000E-02   -1.9886673E-12
  1.4450000E-02   -1.1473858E-11
  1.4485000E-02   -1.4029441E-12
  1.4520000E-02    8.2889780E-12
  1.4555000E-02    2.5595168E-12
  1.4590000E-02   -4.9185048E-12
  1.4625000E-02   -1.3247671E-12
  1.4660000E-02    2.7533733E-12
  1.4695000E-02   -1.7259293E-12
  1.4730000E-02   -2.9889270E-12
  1.4765000E-02    5.3195074E-12
  1.4800000E-02    6.2446875E-12
  1.4835000E-02   -7.7181256E-12
  1.4870000E-02   -1.2267884E-11
  1.4905000E-02    7.1250532E-12
  1.4940000E-02    1.9815075E-11
  1.4975000E-02   -2.1903388E-12
  1.5010000E-02   -2.6779062E-11
  1.5045000E-02   -7.4958217E-12
  1.5080000E-02    3.0583810E-11
  1.5115000E-02    2.1064747E-11
  1.5150000E-02   -2.8794151E-11
  1.5185000E-02   -3.6318507E-11
  1.5220000E-02    1.9801227E-11
  1.5255000E-02    5.0024776E-11
  1.5290000E-02   -3.4086267E-12
  1.5325000E-02   -5.8522708E-11
  1.5360000E-02   -1.8834464E-11
  1.5395000E-02    5.8541401E-11
  1.5430000E-02    4.3677832E-11
  1.5465000E-02   -4.8065541E-11
  1.5500000E-02   -6.6660212E-11
  1.5535000E-02    2.7008158E-11
  1.5570000E-02    8.2970131E-11
  1.5605000E-02    2.5263181E-12
  1.5640000E-02   -8.8454848E-11
  1.5675001E-02   -3.6452220E-11
  1.5710000E-02    8.0549775E-11
  1.5745001E-02    6.9332540E-11
  1.5780000E-02   -5.8965444E-11
  1.5814999E-02   -9.5359665E-11
  1.5850000E-02    2.5946655E-11
  1.5884999E-02    1.0951346E-10
  1.5920000E-02    1.4046949E-11
  1.5954999E-02   -1.0855514E-10
  1.5990000E-02   -5.5128492E-11
  1.6024999E-02    9.1604252E-11
  1.6060000E-02    9.0946799E-11
  1.6094999E-02   -6.0330317E-11
  1.6130000E-02   -1.1569602E-10
  1.6164999E-02    1.8790972E-11
  1.6200000E-02    1.2513558E-10
  1.6235000E-02    2.7217603E-11
  1.6270000E-02   -1.1731885E-10
  1.6305000E-02   -7.1170798E-11
  1.6340001E-02    9.2750994E-11
  1.6375000E-02    1.0671063E-10
  1.6410001E-02   -5.4241445E-11
  1.6445000E-02   -1.2833083E-10
  1.6480001E-02    6.7611715E-12
  1.6515000E-02    1.3221803E-10
  1.6550001E-02    4.3035648E-11
  1.6585000E-02   -1.1709479E-10
  1.6620001E-02   -8.7877303E-11
  1.6655000E-02    8.4435368E-11
  1.6690001E-02    1.2091318E-10
  1.6725000E-02   -3.8232823E-11
  1.6759999E-02   -1.3638893E-10
  1.6795000E-02   -1.5034354E-11
  1.6829999E-02    1.3068957E-10
  1.6865000E-02    6.6791232E-11
  1.6899999E-02   -1.0378825E-10
  1.6935000E-02   -1.0802262E-10
  1.6969999E-02    5.9701445E-11
  1.7005000E-02    1.3130641E-10
  1.7039999E-02   -5.6204811E-12
  1.7075000E-02   -1.3195600E-10
  1.7109999E-02   -4.8970866E-11
  1.7145000E-02    1.0904422E-10
  1.7180000E-02    9.3369867E-11
  1.7215000E-02   -6.6831062E-11
  1.7250000E-02   -1.1841111E-10
  1.7285001E-02    1.4503909E-11
  1.7320000E-02    1.1965132E-10
  1.7355001E-02    3.6735042E-11
  1.7390000E-02   -9.8119263E-11
  1.7425001E-02   -7.6492652E-11
  1.7460000E-02    5.9416125E-11
  1.7495001E-02    9.6650819E-11
  1.7530000E-02   -1.3390181E-11
  1.7565001E-02   -9.3821798E-11
  1.7600000E-02   -2.7734794E-11
  1.7635001E-02    7.1776654E-11
  1.7670000E-02    5.4288726E-11
  1.7704999E-02   -3.9605399E-11
  1.7740000E-02   -6.2486932E-11
  1.7774999E-02    7.3253886E-12
  1.7810000E-02    5.3650643E-11
  1.7844999E-02    1.6286387E-11
  1.7880000E-02   -3.3116579E-11
  1.7914999E-02   -2.4594524E-11
  1.7950000E-02    1.0783475E-11
  1.7984999E-02    1.7073261E-11
  1.8020000E-02    2.6016017E-12
  1.8054999E-02   -1.1192578E-12
  1.8090000E-02   -2.5330220E-12
  1.8124999E-02   -1.4222975E-11
  1.8160000E-02   -9.9967361E-12
  1.8195000E-02    2.1082960E-11
  1.8230001E-02    2.9473556E-11
  1.8265000E-02   -1.5772517E-11
  1.8300001E-02   -5.0842403E-11
  1.8335000E-02   -7.4720334E-12
  1.8370001E-02    5.8194609E-11
  1.8405000E-02    3.6203509E-11
  1.8440001E-02   -5.2282120E-11
  1.8475000E-02   -6.8751373E-11
  1.8510001E-02    2.1714805E-11
  1.8545000E-02    7.8841503E-11
  1.8580001E-02    5.0685363E-12
  1.8615000E-02   -8.9487626E-11
  1.8650001E-02   -5.5649905E-11
  1.8685000E-02    5.3918696E-11
  1.8719999E-02    6.4951322E-11
  1.8755000E-02   -4.1451540E-11
  1.8789999E-02   -1.0224834E-10
  1.8825000E-02   -3.4207668E-11
  1.8859999E-02    4.2909003E-11
  1.8895000E-02    7.2737645E-12
  1.8929999E-02   -8.1327493E-11
  1.8965000E-02   -9.7746311E-11
  1.8999999E-02   -4.6932735E-11
  1.9035000E-02   -2.7049541E-11
  1.9069999E-02   -6.6233019E-11
  1.9105000E-02   -1.1204146E-10
  1.9140000E-02   -1.3922842E-10
  1.9175000E-02   -1.6076383E-10
  1.9210000E-02   -1.6739481E-10
  1.9245001E-02   -1.5894332E-10
  1.9280000E-02   -1.9644755E-10
  1.9315001E-02   -3.1098571E-10
  1.9350000E-02   -4.0502804E-10
  1.9385001E-02   -3.8441900E-10
  1.9420000E-02   -3.5171946E-10
  1.9455001E-02   -4.8689175E-10
  1.9490000E-02   -7.3850248E-10
  1.9525001E-02   -8.5590068E-10
  1.9560000E-02   -7.9243540E-10
  1.9595001E-02   -8.3449531E-10
  1.9630000E-02   -1.1719368E-09
  1.9664999E-02   -1.5624902E-09
  1.9700000E-02   -1.6852597E-09
  1.9734999E-02   -1.6773354E-09
  1.9770000E-02   -1.9667008E-09
  1.9804999E-02   -2.5980829E-09
  1.9840000E-02   -3.1258351E-09
  1.9874999E-02   -3.3137981E-09
  1.9910000E-02   -3.5581369E-09
  1.9944999E-02   -4.3037889E-09
  1.9980000E-02   -5.3298090E-09
  2.0014999E-02   -6.0752439E-09
  2.0050000E-02   -6.5523924E-09
  2.0085000E-02   -7.3853128E-09
  2.0120000E-02   -8.8478860E-09
  2.0155000E-02   -1.0419778E-08
  2.0190001E-02   -1.1621720E-08
  2.0225000E-02   -1.2828711E-08
  2.0260001E-02   -1.4729267E-08
  2.0295000E-02   -1.7258877E-08
  2.0330001E-02   -1.9725064E-08
  2.0365000E-02   -2.1952133E-08
  2.0400001E-02   -2.4617659E-08
  2.0435000E-02   -2.8232302E-08
  2.0470001E-02   -3.2389412E-08
  2.0505000E-02   -3.6477850E-08
  2.0540001E-02   -4.0716515E-08
  2.0575000E-02   -4.5877144E-08
  2.0609999E-02   -5.2156761E-08
  2.0645000E-02   -5.8980103E-08
  2.0679999E-02   -6.6012603E-08
  2.0715000E-02   -7.3778835E-08
  2.0749999E-02   -8.2947309E-08
  2.0785000E-02   -9.3431986E-08
  2.0819999E-02   -1.0469790E-07
  2.0855000E-02   -1.1675374E-07
  2.0889999E-02   -1.3028195E-07
  2.0925000E-02   -1.4574758E-07
  2.0959999E-02   -1.6290042E-07
  2.0995000E-02   -1.8141138E-07
  2.1029999E-02   -2.0160560E-07
  2.1065000E-02   -2.2416982E-07
  2.1100000E-02   -2.4935710E-07
  2.1135001E-02   -2.7693716E-07
  2.1170000E-02   -3.0689574E-07
  2.1205001E-02   -3.3975377E-07
  2.1240000E-02   -3.7608135E-07
  2.1275001E-02   -4.1603766E-07
  2.1310000E-02   -4.5960323E-07
  2.1345001E-02   -5.0704824E-07
  2.1380000E-02   -5.5892900E-07
  2.1415001E-02   -6.1572786E-07
  2.1450000E-02   -6.7771350E-07
  2.1485001E-02   -7.4513690E-07
  2.1520000E-02   -8.1840943E-07
  2.1555001E-02   -8.9806883E-07
  2.1590000E-02   -9.8466580E-07
  2.1624999E-02   -1.0787004E-06
  2.1660000E-02   -1.1806242E-06
  2.1694999E-02   -1.2909110E-06
  2.1730000E-02   -1.4101703E-06
  2.1764999E-02   -1.5391507E-06
  2.1800000E-02   -1.6785740E-06
  2.1834999E-02   -1.8290062E-06
  2.1870000E-02   -1.9909953E-06
  2.1904999E-02   -2.1653207E-06
  2.1940000E-02   -2.3529760E-06
  2.1974999E-02   -2.5548591E-06
  2.2010000E-02   -2.7716178E-06
  2.2045000E-02   -3.0039350E-06
  2.2080000E-02   -3.2528494E-06
  2.2115000E-02   -3.5195931E-06
  2.2150001E-02   -3.8051387E-06
  2.2185000E-02   -4.1101744E-06
  2.2220001E-02   -4.4356098E-06
  2.2255000E-02   -4.7828162E-06
  2.2290001E-02   -5.1531683E-06
  2.2325000E-02   -5.5475948E-06
  2.2360001E-02   -5.9669060E-06
  2.2395000E-02   -6.4123765E-06
  2.2430001E-02   -6.8855952E-06
  2.2465000E-02   -7.3878246E-06
  2.2500001E-02   -7.9199472E-06
  2.2535000E-02   -8.4830926E-06
  2.2569999E-02   -9.0788408E-06
  2.2605000E-02   -9.7086868E-06
  2.2639999E-02   -1.0373703E-05
  2.2675000E-02   -1.1074960E-05
  2.2709999E-02   -1.1813903E-05
  2.2745000E-02   -1.2592031E-05
  2.2779999E-02   -1.3410515E-05
  2.2815000E-02   -1.4270407E-05
  2.2849999E-02   -1.5173005E-05
  2.2885000E-02   -1.6119711E-05
  2.2919999E-02   -1.7111681E-05
  2.2955000E-02   -1.8149884E-05
  2.2990000E-02   -1.9235418E-05
  2.3025000E-02   -2.0369482E-05
  2.3060000E-02   -2.1553064E-05
  2.3095001E-02   -2.2786930E-05
  2.3130000E-02   -2.4071869E-05
  2.3165001E-02   -2.5408783E-05
  2.3200000E-02   -2.6798436E-05
  2.3235001E-02   -2.8241286E-05
  2.3270000E-02   -2.9737690E-05
  2.3305001E-02   -3.1288098E-05
  2.3340000E-02   -3.2892913E-05
  2.3375001E-02   -3.4552188E-05
  2.3410000E-02   -3.6265697E-05
  2.3445001E-02   -3.8033304E-05
  2.3480000E-02   -3.9854902E-05
  2.3514999E-02   -4.1730040E-05
  2.3550000E-02   -4.3657867E-05
  2.3584999E-02   -4.5637509E-05
  2.3620000E-02   -4.7668207E-05
  2.3654999E-02   -4.9748876E-05
  2.3690000E-02   -5.1877923E-05
  2.3724999E-02   -5.4053631E-05
  2.3760000E-02   -5.6274392E-05
  2.3794999E-02   -5.8538411E-05
  2.3830000E-02   -6.0843395E-05
  2.3864999E-02   -6.3186722E-05
  2.3900000E-02   -6.5565851E-05
  2.3934999E-02   -6.7978086E-05
  2.3970000E-02   -7.0420348E-05
  2.4005000E-02   -7.2889205E-05
  2.4040001E-02   -7.5381198E-05
  2.4075000E-02   -7.7892662E-05
  2.4110001E-02   -8.0419573E-05
  2.4145000E-02   -8.2957689E-05
  2.4180001E-02   -8.5502768E-05
  2.4215000E-02   -8.8050314E-05
  2.4250001E-02   -9.0595408E-05
  2.4285000E-02   -9.3132949E-05
  2.4320001E-02   -9.5657881E-05
  2.4355000E-02   -9.8165096E-05
  2.4390001E-02   -1.0064903E-04
  2.4425000E-02   -1.0310380E-04
  2.4460001E-02   -1.0552368E-04
  2.4495000E-02   -1.0790308E-04
  2.4529999E-02   -1.1023605E-04
  2.4565000E-02   -1.1251617E-04
  2.4599999E-02   -1.1473713E-04
  2.4635000E-02   -1.1689297E-04
  2.4669999E-02   -1.1897775E-04
  2.4705000E-02   -1.2098505E-04
  2.4739999E-02   -1.2290826E-04
  2.4775000E-02   -1.2474116E-04
  2.4809999E-02   -1.2647801E-04
  2.4845000E-02   -1.2811289E-04
  2.4879999E-02   -1.2963939E-04
  2.4915000E-02   -1.3105139E-04
  2.4950000E-02   -1.3234351E-04
  2.4985000E-02   -1.3351050E-04
  2.5020000E-02   -1.3454683E-04
  2.5055001E-02   -1.3544715E-04
  2.5090000E-02   -1.3620676E-04
  2.5125001E-02   -1.3682125E-04
  2.5160000E-02   -1.3728622E-04
  2.5195001E-02   -1.3759761E-04
  2.5230000E-02   -1.3775207E-04
  2.5265001E-02   -1.3774635E-04
  2.5300000E-02   -1.3757742E-04
  2.5335001E-02   -1.3724284E-04
  2.5370000E-02   -1.3674094E-04
  2.5405001E-02   -1.3607019E-04
  2.5440000E-02   -1.3522919E-04
  2.5474999E-02   -1.3421741E-04
  2.5510000E-02   -1.3303508E-04
  2.5544999E-02   -1.3168280E-04
  2.5580000E-02   -1.3016128E-04
  2.5614999E-02   -1.2847193E-04
  2.5650000E-02   -1.2661687E-04
  2.5684999E-02   -1.2459866E-04
  2.5720000E-02   -1.2242052E-04
  2.5754999E-02   -1.2008641E-04
  2.5790000E-02   -1.1760042E-04
  2.5824999E-02   -1.1496667E-04
  2.5860000E-02   -1.1219067E-04
  2.5895000E-02   -1.0927912E-04
  2.5930000E-02   -1.0623813E-04
  2.5965000E-02   -1.0307348E-04
  2.6000001E-02   -9.9792429E-05
  2.6035000E-02   -9.6403746E-05
  2.6070001E-02   -9.2915703E-05
  2.6105000E-02   -8.9335728E-05
  2.6140001E-02   -8.5672313E-05
  2.6175000E-02   -8.1935817E-05
  2.6210001E-02   -7.8136531E-05
  2.6245000E-02   -7.4283278E-05
  2.6280001E-02   -7.0385089E-05
  2.6315000E-02   -6.6453038E-05
  2.6350001E-02   -6.2498570E-05
  2.6385000E-02   -5.8531798E-05
  2.6419999E-02   -5.4562424E-05
  2.6455000E-02   -5.0600982E-05
  2.6489999E-02   -4.6658741E-05
  2.6525000E-02   -4.2746877E-05
  2.6559999E-02   -3.8875511E-05
  2.6595000E-02   -3.5053949E-05
  2.6629999E-02   -3.1292435E-05
  2.6665000E-02   -2.7601942E-05
  2.6699999E-02   -2.3992136E-05
  2.6735000E-02   -2.0471425E-05
  2.6769999E-02   -1.7048525E-05
  2.6805000E-02   -1.3732461E-05
  2.6839999E-02   -1.0531669E-05
  2.6875000E-02   -7.4535824E-06
  2.6910000E-02   -4.5047777E-06
  2.6945001E-02   -1.6917595E-06
  2.6980000E-02    9.7916154E-07