 -4.8000002E-03    1.0000000E-24
 -4.7650002E-03    1.0000002E-24
 -4.7300002E-03    1.0000001E-24
 -4.6950001E-03    1.0000000E-24
 -4.6600001E-03    1.0000002E-24
 -4.6250001E-03    1.0000001E-24
 -4.5900000E-03    1.0000000E-24
 -4.5550000E-03    1.0000003E-24
 -4.5200000E-03    1.0000002E-24
 -4.4849999E-03    9.9999963E-25
 -4.4499999E-03    1.0000001E-24
 -4.4149999E-03    1.0000005E-24
 -4.3799998E-03    1.0000000E-24
 -4.3449998E-03    9.9999972E-25
 -4.3100002E-03    1.0000003E-24
 -4.2750002E-03    1.0000003E-24
 -4.2400002E-03    1.0000003E-24
 -4.2050001E-03    1.0000003E-24
 -4.1700001E-03    9.9999982E-25
 -4.1350001E-03    9.9999992E-25
 -4.1000000E-03    1.0000004E-24
 -4.0650000E-03    9.9999982E-25
 -4.0300000E-03    9.9999953E-25
 -3.9949999E-03    1.0000002E-24
 -3.9599999E-03    1.0000003E-24
 -3.9249999E-03    9.9999982E-25
 -3.8900001E-03    1.0000003E-24
 -3.8550000E-03    1.0000006E-24
 -3.8200000E-03    9.9999972E-25
 -3.7849999E-03    9.9999963E-25
 -3.7499999E-03    1.0000005E-24
 -3.7150001E-03    1.0000003E-24
 -3.6800001E-03    9.9999953E-25
 -3.6450000E-03    1.0000001E-24
 -3.6100000E-03    1.0000008E-24
 -3.5750000E-03    1.0000000E-24
 -3.5399999E-03    9.9999923E-25
 -3.5049999E-03    9.9999982E-25
 -3.4700001E-03    1.0000007E-24
 -3.4350001E-03    1.0000003E-24
 -3.4000000E-03    1.0000001E-24
 -3.3650000E-03    9.9999992E-25
 -3.3300000E-03    9.9999972E-25
 -3.2949999E-03    1.0000001E-24
 -3.2599999E-03    1.0000007E-24
 -3.2250001E-03    1.0000003E-24
 -3.1900001E-03    9.9999923E-25
 -3.1550000E-03    9.9999943E-25
 -3.1200000E-03    1.0000006E-24
 -3.0850000E-03    1.0000005E-24
 -3.0499999E-03    9.9999943E-25
 -3.0149999E-03    1.0000001E-24
 -2.9800001E-03    1.0000013E-24
 -2.9450001E-03    1.0000001E-24
 -2.9100000E-03    9.9999864E-25
 -2.8750000E-03    1.0000000E-24
 -2.8400000E-03    1.0000012E-24
 -2.8049999E-03    9.9999992E-25
 -2.7699999E-03    9.9999903E-25
 -2.7350001E-03    9.9999992E-25
 -2.7000001E-03    1.0000006E-24
 -2.6650000E-03    1.0000006E-24
 -2.6300000E-03    1.0000005E-24
 -2.5950000E-03    9.9999992E-25
 -2.5599999E-03    9.9999992E-25
 -2.5249999E-03    1.0000005E-24
 -2.4900001E-03    1.0000000E-24
 -2.4550001E-03    9.9999913E-25
 -2.4200000E-03    9.9999953E-25
 -2.3850000E-03    1.0000006E-24
 -2.3500000E-03    1.0000009E-24
 -2.3149999E-03    1.0000001E-24
 -2.2799999E-03    9.9999933E-25
 -2.2450001E-03    9.9999963E-25
 -2.2100001E-03    1.0000001E-24
 -2.1750000E-03    1.0000001E-24
 -2.1400000E-03    1.0000001E-24
 -2.1050000E-03    1.0000008E-24
 -2.0699999E-03    1.0000013E-24
 -2.0349999E-03    9.9999992E-25
 -2.0000001E-03    9.9999864E-25
 -1.9650001E-03    9.9999943E-25
 -1.9300000E-03    1.0000006E-24
 -1.8950000E-03    1.0000004E-24
 -1.8600000E-03    1.0000001E-24
 -1.8250000E-03    1.0000002E-24
 -1.7900000E-03    1.0000002E-24
 -1.7550000E-03    9.9999953E-25
 -1.7199999E-03    9.9999943E-25
 -1.6850000E-03    1.0000005E-24
 -1.6500000E-03    1.0000010E-24
 -1.6150000E-03    9.9999992E-25
 -1.5800000E-03    9.9999953E-25
 -1.5450000E-03    1.0000010E-24
 -1.5100000E-03    1.0000007E-24
 -1.4750001E-03    9.9999864E-25
 -1.4400000E-03    9.9999893E-25
 -1.4050000E-03    1.0000006E-24
 -1.3700000E-03    1.0000001E-24
 -1.3350000E-03    9.9999943E-25
 -1.3000000E-03    1.0000007E-24
 -1.2650000E-03    1.0000010E-24
 -1.2300001E-03    9.9999972E-25
 -1.1950000E-03    9.9999933E-25
 -1.1600000E-03    1.0000001E-24
 -1.1250000E-03    1.0000002E-24
 -1.0900000E-03    9.9999982E-25
 -1.0550000E-03    1.0000004E-24
 -1.0200000E-03    1.0000005E-24
 -9.8500005E-04    9.9999972E-25
 -9.5000002E-04    1.0000008E-24
 -9.1499998E-04    1.0000015E-24
 -8.8000001E-04    9.9999982E-25
 -8.4499997E-04    9.9999864E-25
 -8.1000000E-04    9.9999933E-25
 -7.7500002E-04    1.0000003E-24
 -7.3999999E-04    1.0000003E-24
 -7.0500001E-04    1.0000004E-24
 -6.6999998E-04    1.0000005E-24
 -6.3500000E-04    9.9999982E-25
 -6.0000003E-04    9.9999923E-25
 -5.6499999E-04    9.9999953E-25
 -5.3000002E-04    9.9999992E-25
 -4.9499999E-04    1.0000005E-24
 -4.6000001E-04    1.0000011E-24
 -4.2500001E-04    1.0000009E-24
 -3.9000000E-04    1.0000006E-24
 -3.5500000E-04    1.0000004E-24
 -3.1999999E-04    9.9999953E-25
 -2.8499999E-04    9.9999923E-25
 -2.5000001E-04    9.9999982E-25
 -2.1499999E-04    1.0000006E-24
 -1.8000000E-04    1.0000007E-24
 -1.4500000E-04    1.0000004E-24
 -1.1000000E-04    9.9999972E-25
 -7.5000004E-05    9.9999903E-25
 -3.9999999E-05    9.9999943E-25
 -4.9999999E-06    9.9999982E-25
  2.9999999E-05    1.0000001E-24
  6.5000000E-05    1.0000013E-24
  9.9999997E-05    1.0000018E-24
  1.3499999E-04    1.0000004E-24
  1.7000000E-04    9.9999913E-25
  2.0500000E-04    9.9999972E-25
  2.3999999E-04    1.0000004E-24
  2.7500000E-04    9.9999972E-25
  3.1000000E-04    9.9999963E-25
  3.4500001E-04    1.0000004E-24
  3.8000001E-04    9.9999982E-25
  4.1499999E-04    9.9999884E-25
  4.4999999E-04    9.9999923E-25
  4.8500000E-04    1.0000002E-24
  5.2000000E-04    1.0000005E-24
  5.5499998E-04    1.0000010E-24
  5.9000001E-04    1.0000013E-24
  6.2499999E-04    1.0000008E-24
  6.6000002E-04    1.0000001E-24
  6.9500000E-04    9.9999854E-25
  7.3000003E-04    9.9999815E-25
  7.6500000E-04    1.0000015E-24
  7.9999998E-04    1.0000029E-24
  8.3500001E-04    9.9999963E-25
  8.6999999E-04    9.9999874E-25
  9.0500002E-04    1.0000012E-24
  9.4000000E-04    1.0000001E-24
  9.7499997E-04    9.9999755E-25
  1.0100000E-03    9.9999992E-25
  1.0450000E-03    1.0000017E-24
  1.0800000E-03    9.9999972E-25
  1.1150000E-03    9.9999992E-25
  1.1500000E-03    1.0000012E-24
  1.1849999E-03    9.9999953E-25
  1.2200000E-03    9.9999864E-25
  1.2550000E-03    9.9999972E-25
  1.2900000E-03    1.0000002E-24
  1.3250000E-03    1.0000004E-24
  1.3600000E-03    1.0000014E-24
  1.3950000E-03    1.0000006E-24
  1.4299999E-03    9.9999982E-25
  1.4650000E-03    9.9999982E-25
  1.5000000E-03    9.9999844E-25
  1.5350000E-03    9.9999913E-25
  1.5700000E-03    1.0000028E-24
  1.6050000E-03    1.0000016E-24
  1.6400000E-03    9.9999765E-25
  1.6749999E-03    9.9999933E-25
  1.7100000E-03    1.0000017E-24
  1.7450000E-03    9.9999933E-25
  1.7800000E-03    9.9999864E-25
  1.8150000E-03    1.0000013E-24
  1.8500000E-03    1.0000006E-24
  1.8850000E-03    9.9999844E-25
  1.9200000E-03    1.0000002E-24
  1.9550000E-03    1.0000016E-24
  1.9900000E-03    9.9999982E-25
  2.0250001E-03    9.9999982E-25
  2.0600001E-03    1.0000012E-24
  2.0949999E-03    1.0000004E-24
  2.1299999E-03    9.9999943E-25
  2.1650000E-03    1.0000004E-24
  2.2000000E-03    1.0000005E-24
  2.2350000E-03    9.9999874E-25
  2.2700001E-03    9.9999903E-25
  2.3050001E-03    1.0000002E-24
  2.3399999E-03    9.9999972E-25
  2.3749999E-03    1.0000002E-24
  2.4100000E-03    1.0000012E-24
  2.4450000E-03    9.9999992E-25
  2.4800000E-03    9.9999933E-25
  2.5150001E-03    1.0000011E-24
  2.5500001E-03    1.0000009E-24
  2.5849999E-03    9.9999893E-25
  2.6199999E-03    9.9999923E-25
  2.6550000E-03    1.0000011E-24
  2.6900000E-03    1.0000010E-24
  2.7250000E-03    9.9999953E-25
  2.7600001E-03    9.9999864E-25
  2.7950001E-03    9.9999963E-25
  2.8299999E-03    1.0000018E-24
  2.8649999E-03    1.0000008E-24
  2.9000000E-03    9.9999834E-25
  2.9350000E-03    1.0000003E-24
  2.9700000E-03    1.0000030E-24
  3.0050001E-03    9.9999953E-25
  3.0400001E-03    9.9999765E-25
  3.0749999E-03    1.0000015E-24
  3.1099999E-03    1.0000015E-24
  3.1450000E-03    9.9999726E-25
  3.1800000E-03    9.9999805E-25
  3.2150000E-03    1.0000017E-24
  3.2500001E-03    1.0000011E-24
  3.2850001E-03    1.0000002E-24
  3.3199999E-03    1.0000008E-24
  3.3549999E-03    9.9999943E-25
  3.3900000E-03    9.9999854E-25
  3.4250000E-03    1.0000004E-24
  3.4600000E-03    1.0000005E-24
  3.4950001E-03    9.9999963E-25
  3.5300001E-03    1.0000006E-24
  3.5649999E-03    1.0000009E-24
  3.5999999E-03    9.9999992E-25
  3.6350000E-03    9.9999992E-25
  3.6700000E-03    1.0000002E-24
  3.7050000E-03    1.0000003E-24
  3.7400001E-03    1.0000005E-24
  3.7750001E-03    1.0000001E-24
  3.8099999E-03    9.9999972E-25
  3.8449999E-03    1.0000001E-24
  3.8800000E-03    9.9999953E-25
  3.9149998E-03    9.9999844E-25
  3.9499998E-03    9.9999933E-25
  3.9849998E-03    1.0000009E-24
  4.0199999E-03    1.0000011E-24
  4.0549999E-03    1.0000007E-24
  4.0899999E-03    1.0000003E-24
  4.1250000E-03    1.0000004E-24
  4.1600000E-03    1.0000004E-24
  4.1950000E-03    9.9999844E-25
  4.2300001E-03    9.9999834E-25
  4.2650001E-03    1.0000018E-24
  4.3000001E-03    1.0000015E-24
  4.3350002E-03    9.9999903E-25
  4.3700002E-03    1.0000001E-24
  4.4049998E-03    1.0000009E-24
  4.4399998E-03    9.9999805E-25
  4.4749998E-03    9.9999913E-25
  4.5099999E-03    1.0000019E-24
  4.5449999E-03    9.9999913E-25
  4.5799999E-03    9.9999815E-25
  4.6150000E-03    1.0000021E-24
  4.6500000E-03    1.0000025E-24
  4.6850001E-03    9.9999963E-25
  4.7200001E-03    1.0000010E-24
  4.7550001E-03    1.0000014E-24
  4.7900002E-03    9.9999844E-25
  4.8250002E-03    9.9999943E-25
  4.8600002E-03    1.0000022E-24
  4.8949998E-03    9.9999982E-25
  4.9299998E-03    9.9999785E-25
  4.9649999E-03    1.0000007E-24
  4.9999999E-03    1.0000012E-24
  5.0349999E-03    9.9999864E-25
  5.0700000E-03    9.9999943E-25
  5.1050000E-03    1.0000011E-24
  5.1400000E-03    9.9999982E-25
  5.1750001E-03    9.9999903E-25
  5.2100001E-03    1.0000003E-24
  5.2450001E-03    1.0000008E-24
  5.2800002E-03    1.0000006E-24
  5.3150002E-03    1.0000008E-24
  5.3500002E-03    1.0000007E-24
  5.3849998E-03    1.0000002E-24
  5.4199998E-03    1.0000002E-24
  5.4549999E-03    9.9999992E-25
  5.4899999E-03    9.9999963E-25
  5.5249999E-03    1.0000002E-24
  5.5600000E-03    1.0000003E-24
  5.5950000E-03    9.9999972E-25
  5.6300000E-03    9.9999992E-25
  5.6650001E-03    1.0000000E-24
  5.7000001E-03    9.9999913E-25
  5.7350001E-03    9.9999913E-25
  5.7700002E-03    1.0000011E-24
  5.8050002E-03    1.0000017E-24
  5.8400002E-03    1.0000002E-24
  5.8749998E-03    1.0000000E-24
  5.9099998E-03    1.0000003E-24
  5.9449999E-03    9.9999963E-25
  5.9799999E-03    9.9999943E-25
  6.0149999E-03    1.0000008E-24
  6.0500000E-03    1.0000014E-24
  6.0850000E-03    9.9999913E-25
  6.1200000E-03    9.9999765E-25
  6.1550001E-03    9.9999953E-25
  6.1900001E-03    1.0000017E-24
  6.2250001E-03    1.0000000E-24
  6.2600002E-03    9.9999893E-25
  6.2950002E-03    1.0000012E-24
  6.3299998E-03    1.0000008E-24
  6.3649998E-03    9.9999903E-25
  6.3999998E-03    1.0000006E-24
  6.4349999E-03    1.0000022E-24
  6.4699999E-03    1.0000002E-24
  6.5049999E-03    9.9999953E-25
  6.5400000E-03    1.0000008E-24
  6.5750000E-03    9.9999913E-25
  6.6100000E-03    9.9999805E-25
  6.6450001E-03    9.9999992E-25
  6.6800001E-03    1.0000002E-24
  6.7150001E-03    9.9999884E-25
  6.7500002E-03    1.0000000E-24
  6.7850002E-03    1.0000019E-24
  6.8199998E-03    1.0000011E-24
  6.8549998E-03    9.9999963E-25
  6.8899998E-03    9.9999943E-25
  6.9249999E-03    1.0000008E-24
  6.9599999E-03    1.0000018E-24
  6.9949999E-03    1.0000001E-24
  7.0300000E-03    9.9999844E-25
  7.0650000E-03    1.0000003E-24
  7.1000000E-03    1.0000017E-24
  7.1350001E-03    9.9999923E-25
  7.1700001E-03    9.9999765E-25
  7.2050001E-03    1.0000000E-24
  7.2400002E-03    1.0000013E-24
  7.2750002E-03    1.0000002E-24
  7.3099998E-03    1.0000006E-24
  7.3449998E-03    1.0000006E-24
  7.3799998E-03    9.9999864E-25
  7.4149999E-03    9.9999884E-25
  7.4499999E-03    1.0000006E-24
  7.4850000E-03    9.9999972E-25
  7.5200000E-03    9.9999884E-25
  7.5550000E-03    1.0000006E-24
  7.5900001E-03    1.0000011E-24
  7.6250001E-03    9.9999963E-25
  7.6600001E-03    9.9999933E-25
  7.6950002E-03    1.0000003E-24
  7.7300002E-03    1.0000026E-24
  7.7650002E-03    1.0000033E-24
  7.7999998E-03    9.9999982E-25
  7.8349998E-03    9.9999726E-25
  7.8699999E-03    9.9999963E-25
  7.9049999E-03    1.0000007E-24
  7.9399999E-03    9.9999824E-25
  7.9750000E-03    9.9999834E-25
  8.0100000E-03    1.0000022E-24
  8.0450000E-03    1.0000026E-24
  8.0800001E-03    9.9999864E-25
  8.1150001E-03    9.9999834E-25
  8.1500001E-03    1.0000024E-24
  8.1850002E-03    1.0000014E-24
  8.2200002E-03    9.9999755E-25
  8.2550002E-03    1.0000003E-24
  8.2900003E-03    1.0000038E-24
  8.3250003E-03    1.0000005E-24
  8.3600003E-03    9.9999844E-25
  8.3950004E-03    9.9999953E-25
  8.4300004E-03    9.9999854E-25
  8.4650004E-03    9.9999805E-25
  8.5000005E-03    1.0000004E-24
  8.5349996E-03    1.0000006E-24
  8.5699996E-03    1.0000003E-24
  8.6049996E-03    1.0000013E-24
  8.6399997E-03    1.0000015E-24
  8.6749997E-03    1.0000007E-24
  8.7099997E-03    9.9999982E-25
  8.7449998E-03    9.9999893E-25
  8.7799998E-03    9.9999884E-25
  8.8149998E-03    9.9999903E-25
  8.8499999E-03    9.9999844E-25
  8.8849999E-03    1.0000000E-24
  8.9199999E-03    1.0000028E-24
  8.9550000E-03    1.0000013E-24
  8.9900000E-03    9.9999765E-25
  9.0250000E-03    9.9999874E-25
  9.0600001E-03    1.0000020E-24
  9.0950001E-03    1.0000012E-24
  9.1300001E-03    9.9999963E-25
  9.1650002E-03    1.0000012E-24
  9.2000002E-03    1.0000018E-24
  9.2350002E-03    9.9999775E-25
  9.2700003E-03    9.9999706E-25
  9.3050003E-03    1.0000018E-24
  9.3400003E-03    1.0000021E-24
  9.3750004E-03    9.9999893E-25
  9.4100004E-03    1.0000000E-24
  9.4450004E-03    1.0000019E-24
  9.4799995E-03    9.9999982E-25
  9.5149996E-03    9.9999923E-25
  9.5499996E-03    1.0000008E-24
  9.5849996E-03    1.0000001E-24
  9.6199997E-03    9.9999864E-25
  9.6549997E-03    9.9999982E-25
  9.6899997E-03    1.0000021E-24
  9.7249998E-03    1.0000016E-24
  9.7599998E-03    9.9999805E-25
  9.7949998E-03    9.9999746E-25
  9.8299999E-03    1.0000026E-24
  9.8649999E-03    1.0000039E-24
  9.8999999E-03    9.9999765E-25
  9.9350000E-03    9.9999608E-25
  9.9700000E-03    1.0000024E-24
  1.0005000E-02    1.0000037E-24
  1.0040000E-02    9.9999824E-25
  1.0075000E-02    9.9999499E-25
  1.0110000E-02    1.0000003E-24
  1.0145000E-02    1.0000064E-24
  1.0180000E-02    1.0000018E-24
  1.0215000E-02    9.9999253E-25
  1.0250000E-02    9.9999351E-25
  1.0285000E-02    1.0000103E-24
  1.0320000E-02    1.0000199E-24
  1.0355000E-02    9.9999982E-25
  1.0390000E-02    9.9996876E-25
  1.0425000E-02    9.9999795E-25
  1.0460000E-02    1.0000556E-24
  1.0495000E-02    1.0000234E-24
  1.0530000E-02    9.9994085E-25
  1.0565000E-02    9.9996945E-25
  1.0600000E-02    1.0000833E-24
  1.0635000E-02    1.0000737E-24
  1.0670000E-02    9.9989845E-25
  1.0705000E-02    9.9983456E-25
  1.0740000E-02    1.0000561E-24
  1.0775000E-02    1.0002599E-24
  1.0810000E-02    9.9989106E-25
  1.0845000E-02    9.9959553E-25
  1.0880000E-02    1.0001150E-24
  1.0915000E-02    1.0006755E-24
  1.0950000E-02    9.9994026E-25
  1.0985000E-02    9.9889660E-25
  1.1020000E-02    9.9933728E-25
  1.1055000E-02    1.0013086E-24
  1.1090000E-02    1.0012610E-24
  1.1125000E-02    9.9859506E-25
  1.1160000E-02    9.9777918E-25
  1.1195000E-02    1.0013728E-24
  1.1230000E-02    1.0038443E-24
  1.1265000E-02    9.9930908E-25
  1.1300000E-02    9.9372621E-25
  1.1335000E-02    9.9829470E-25
  1.1370000E-02    1.0081475E-24
  1.1405000E-02    1.0063241E-24
  1.1440000E-02    9.9129593E-25
  1.1475000E-02    9.8875530E-25
  1.1510000E-02    1.0082412E-24
  1.1545000E-02    1.0130729E-24
  1.1580000E-02    9.9030255E-25
  1.1615000E-02    9.7155320E-25
  1.1650000E-02    9.9885469E-25
  1.1685000E-02    1.0412478E-24
  1.1720000E-02    1.0206707E-24
  1.1755000E-02    9.4111353E-25
  1.1790000E-02    9.5770574E-25
  1.1825000E-02    1.0569000E-24
  1.1860000E-02    1.0782708E-24
  1.1895000E-02    9.6603009E-25
  1.1930000E-02    8.6243066E-25
  1.1965000E-02    1.0208527E-24
  1.2000000E-02    1.2398162E-24
  1.2035000E-02    1.0585793E-24
  1.2070000E-02    6.8909258E-25
  1.2105000E-02    7.7683309E-25
  1.2140000E-02    1.4002362E-24
  1.2175000E-02    1.3582476E-24
  1.2210000E-02    5.5137024E-25
  1.2245000E-02    3.9760204E-25
  1.2280000E-02    1.3920672E-24
  1.2315000E-02    1.9146108E-24
  1.2350000E-02    7.8014340E-25
  1.2385000E-02   -4.0309106E-25
  1.2420000E-02    6.2706154E-25
  1.2455000E-02    2.6787231E-24
  1.2490000E-02    2.4352489E-24
  1.2525000E-02   -8.2055004E-25
  1.2560000E-02   -1.8594035E-24
  1.2595000E-02    3.0277008E-24
  1.2630000E-02    5.8321244E-24
  1.2665000E-02   -3.5105858E-25
  1.2700000E-02   -5.8031148E-24
  1.2735000E-02    1.0353565E-24
  1.2770000E-02    1.1215426E-23
  1.2805000E-02    5.8440145E-24
  1.2840000E-02   -1.1524314E-23
  1.2875000E-02   -1.0237214E-23
  1.2910000E-02    1.2019610E-23
  1.2945000E-02    1.9757627E-23
  1.2980000E-02   -5.0074839E-24
  1.3015000E-02   -2.9206149E-23
  1.3050000E-02   -5.0452861E-25
  1.3085000E-02    4.4816056E-23
  1.3120000E-02    1.2933603E-23
  1.3155000E-02   -5.4239047E-23
  1.3190000E-02   -3.4226172E-23
  1.3225000E-02    6.3192952E-23
  1.3260000E-02    7.7007794E-23
  1.3295000E-02   -5.5500776E-23
  1.3330000E-02   -1.1938021E-22
  1.3365000E-02    3.4002934E-23
  1.3400000E-02    1.7194362E-22
  1.3435000E-02    2.1971084E-23
  1.3470000E-02   -2.2094881E-22
  1.3505000E-02   -1.0376911E-22
  1.3540000E-02    2.8433210E-22
  1.3575000E-02    2.5760057E-22
  1.3610000E-02   -2.9312122E-22
  1.3645000E-02   -4.5256463E-22
  1.3680000E-02    2.2194227E-22
  1.3715000E-02    6.7944602E-22
  1.3750000E-02   -3.5488426E-23
  1.3785000E-02   -8.7778949E-22
  1.3820000E-02   -2.6221292E-22
  1.3855000E-02    1.0691202E-21
  1.3890000E-02    7.7066268E-22
  1.3925000E-02   -1.1748599E-21
  1.3960000E-02   -1.5308557E-21
  1.3995000E-02    1.0310160E-21
  1.4030000E-02    2.4720182E-21
  1.4065000E-02   -5.3098169E-22
  1.4100000E-02   -3.5285724E-21
  1.4135000E-02   -6.8741874E-22
  1.4170000E-02    4.3709229E-21
  1.4205000E-02    2.4348489E-21
  1.4240000E-02   -4.8960732E-21
  1.4275000E-02   -4.9579150E-21
  1.4310000E-02    4.3757269E-21
  1.4345000E-02    8.1553498E-21
  1.4380000E-02   -2.9237957E-21
  1.4415000E-02   -1.2114884E-20
  1.4450000E-02   -9.8471419E-22
  1.4485000E-02    1.5759104E-20
  1.4520000E-02    6.7189167E-21
  1.4555000E-02   -1.8095810E-20
  1.4590000E-02   -1.5034497E-20
  1.4625000E-02    1.7918391E-20
  1.4660000E-02    2.6124291E-20
  1.4695000E-02   -1.3843955E-20
  1.4730000E-02   -3.9149302E-20
  1.4765000E-02    2.4763909E-21
  1.4800000E-02    5.2138134E-20
  1.4835000E-02    1.6755348E-20
  1.4870000E-02   -6.1243535E-20
  1.4905000E-02   -4.2215072E-20
  1.4940000E-02    6.2560419E-20
  1.4975000E-02    7.7214131E-20
  1.5010000E-02   -5.3170688E-20
  1.5045000E-02   -1.1769763E-19
  1.5080000E-02    2.7088814E-20
  1.5115000E-02    1.5882179E-19
  1.5150000E-02    2.6410872E-20
  1.5185000E-02   -1.9456110E-19
  1.5220000E-02   -1.0745662E-19
  1.5255000E-02    2.0086450E-19
  1.5290000E-02    2.1600444E-19
  1.5325000E-02   -1.7813183E-19
  1.5360000E-02   -3.4237740E-19
  1.5395000E-02    1.0913681E-19
  1.5430000E-02    4.7651001E-19
  1.5465000E-02    2.8187750E-20
  1.5500000E-02   -5.9003134E-19
  1.5535000E-02   -2.4606995E-19
  1.5570000E-02    6.4829510E-19
  1.5605000E-02    5.4137167E-19
  1.5640000E-02   -6.1978637E-19
  1.5675001E-02   -9.0333986E-19
  1.5710000E-02    4.2851546E-19
  1.5745001E-02    1.2693046E-18
  1.5780000E-02   -8.2146589E-20
  1.5814999E-02   -1.5973648E-18
  1.5850000E-02   -4.6005356E-19
  1.5884999E-02    1.8112565E-18
  1.5920000E-02    1.2331908E-18
  1.5954999E-02   -1.7976291E-18
  1.5990000E-02   -2.2018289E-18
  1.6024999E-02    1.3589926E-18
  1.6060000E-02    3.2010066E-18
  1.6094999E-02   -4.6112502E-19
  1.6130000E-02   -4.0501129E-18
  1.6164999E-02   -8.3760092E-19
  1.6200000E-02    4.7267631E-18
  1.6235000E-02    2.6263644E-18
  1.6270000E-02   -4.9386049E-18
  1.6305000E-02   -5.0121487E-18
  1.6340001E-02    4.1777749E-18
  1.6375000E-02    7.5088429E-18
  1.6410001E-02   -2.2864929E-18
  1.6445000E-02   -9.7217627E-18
  1.6480001E-02   -6.9437527E-19
  1.6515000E-02    1.1373264E-17
  1.6550001E-02    4.7107452E-18
  1.6585000E-02   -1.2085522E-17
  1.6620001E-02   -9.9853323E-18
  1.6655000E-02    1.0713664E-17
  1.6690001E-02    1.5684524E-17
  1.6725000E-02   -7.3748851E-18
  1.6759999E-02   -2.1327095E-17
  1.6795000E-02    1.3988572E-18
  1.6829999E-02    2.5825416E-17
  1.6865000E-02    7.0211636E-18
  1.6899999E-02   -2.7844881E-17
  1.6935000E-02   -1.7484701E-17
  1.6969999E-02    2.6637113E-17
  1.7005000E-02    2.9168483E-17
  1.7039999E-02   -2.1296013E-17
  1.7075000E-02   -4.1078434E-17
  1.7109999E-02    1.0837292E-17
  1.7145000E-02    5.1206110E-17
  1.7180000E-02    4.1728594E-18
  1.7215000E-02   -5.7752745E-17
  1.7250000E-02   -2.3090489E-17
  1.7285001E-02    5.9321125E-17
  1.7320000E-02    4.5590665E-17
  1.7355001E-02   -5.2946838E-17
  1.7390000E-02   -6.8324874E-17
  1.7425001E-02    3.9665914E-17
  1.7460000E-02    8.9465585E-17
  1.7495001E-02   -1.8231378E-17
  1.7530000E-02   -1.0789228E-16
  1.7565001E-02   -1.0748447E-17
  1.7600000E-02    1.1957824E-16
  1.7635001E-02    4.5645666E-17
  1.7670000E-02   -1.2295559E-16
  1.7704999E-02   -8.3888787E-17
  1.7740000E-02    1.1756819E-16
  1.7774999E-02    1.2733179E-16
  1.7810000E-02   -1.0038258E-16
  1.7844999E-02   -1.7239104E-16
  1.7880000E-02    7.2158690E-17
  1.7914999E-02    2.1768268E-16
  1.7950000E-02   -3.1541935E-17
  1.7984999E-02   -2.6230689E-16
  1.8020000E-02   -2.4422489E-17
  1.8054999E-02    3.0514767E-16
  1.8090000E-02    1.0124167E-16
  1.8124999E-02   -3.4501320E-16
  1.8160000E-02   -2.0861334E-16
  1.8195000E-02    3.6517687E-16
  1.8230001E-02    3.4897008E-16
  1.8265000E-02   -3.5701425E-16
  1.8300001E-02   -5.2722608E-16
  1.8335000E-02    2.9850902E-16
  1.8370001E-02    7.4070930E-16
  1.8405000E-02   -1.6538681E-16
  1.8440001E-02   -9.7716018E-16
  1.8475000E-02   -8.2010670E-17
  1.8510001E-02    1.1982337E-15
  1.8545000E-02    4.7836101E-16
  1.8580001E-02   -1.3405106E-15
  1.8615000E-02   -1.0263411E-15
  1.8650001E-02    1.3325772E-15
  1.8685000E-02    1.7145276E-15
  1.8719999E-02   -1.0902443E-15
  1.8755000E-02   -2.4989772E-15
  1.8789999E-02    5.0159052E-16
  1.8825000E-02    3.2659229E-15
  1.8859999E-02    5.1006312E-16
  1.8895000E-02   -3.8488965E-15
  1.8929999E-02   -1.9824762E-15
  1.8965000E-02    4.0152318E-15
  1.8999999E-02    3.8624486E-15
  1.9035000E-02   -3.5128006E-15
  1.9069999E-02   -5.9774370E-15
  1.9105000E-02    2.1007046E-15
  1.9140000E-02    8.0172304E-15
  1.9175000E-02    3.9703396E-16
  1.9210000E-02   -9.5383016E-15
  1.9245001E-02   -4.0147795E-15
  1.9280000E-02    9.9821478E-15
  1.9315001E-02    8.5490510E-15
  1.9350000E-02   -8.7489957E-15
  1.9385001E-02   -1.3512053E-14
  1.9420000E-02    5.3264930E-15
  1.9455001E-02    1.8091751E-14
  1.9490000E-02    5.5131797E-16
  1.9525001E-02   -2.1237598E-14
  1.9560000E-02   -8.7829820E-15
  1.9595001E-02    2.1702434E-14
  1.9630000E-02    1.8697400E-14
  1.9664999E-02   -1.8309069E-14
  1.9700000E-02   -2.9016896E-14
  1.9734999E-02    1.0183609E-14
  1.9770000E-02    3.7850453E-14
  1.9804999E-02    2.8812529E-15
  1.9840000E-02   -4.2914182E-14
  1.9874999E-02   -2.0172908E-14
  1.9910000E-02    4.1800818E-14
  1.9944999E-02    3.9799500E-14
  1.9980000E-02   -3.2517761E-14
  2.0014999E-02   -5.8728467E-14
  2.0050000E-02    1.4033556E-14
  2.0085000E-02    7.2945908E-14
  2.0120000E-02    1.3094503E-14
  2.0155000E-02   -7.8071542E-14
  2.0190001E-02   -4.6321132E-14
  2.0225000E-02    7.0121711E-14
  2.0260001E-02    8.0957078E-14
  2.0295000E-02   -4.6579446E-14
  2.0330001E-02   -1.1052728E-13
  2.0365000E-02    7.3857639E-15
  2.0400001E-02    1.2755984E-13
  2.0435000E-02    4.4253226E-14
  2.0470001E-02   -1.2487324E-13
  2.0505000E-02   -1.0145325E-13
  2.0540001E-02    9.7341596E-14
  2.0575000E-02    1.5404732E-13
  2.0609999E-02   -4.3659453E-14
  2.0645000E-02   -1.8987469E-13
  2.0679999E-02   -3.2178358E-14
  2.0715000E-02    1.9692093E-13
  2.0749999E-02    1.2024444E-13
  2.0785000E-02   -1.6600406E-13
  2.0819999E-02   -2.0505579E-13
  2.0855000E-02    9.3763633E-14
  2.0889999E-02    2.6756047E-13
  2.0925000E-02    1.4932030E-14
  2.0959999E-02   -2.8838599E-13
  2.0995000E-02   -1.4568521E-13
  2.1029999E-02    2.5224332E-13
  2.1065000E-02    2.7517319E-13
  2.1100000E-02   -1.5259259E-13
  2.1135001E-02   -3.7398719E-13
  2.1170000E-02   -4.3457385E-15
  2.1205001E-02    4.1181864E-13
  2.1240000E-02    1.9753752E-13
  2.1275001E-02   -3.6411726E-13
  2.1310000E-02   -3.9177757E-13
  2.1345001E-02    2.1956352E-13
  2.1380000E-02    5.4209236E-13
  2.1415001E-02    1.3743995E-14
  2.1450000E-02   -6.0143497E-13
  2.1485001E-02   -3.0477804E-13
  2.1520000E-02    5.3112300E-13
  2.1555001E-02    6.0055829E-13
  2.1590000E-02   -3.1206979E-13
  2.1624999E-02   -8.3240711E-13
  2.1660000E-02   -4.5380610E-14
  2.1694999E-02    9.2771277E-13
  2.1730000E-02    4.9605697E-13
  2.1764999E-02   -8.2542133E-13
  2.1800000E-02   -9.6084750E-13
  2.1834999E-02    4.9320411E-13
  2.1870000E-02    1.3358587E-12
  2.1904999E-02    5.7758682E-14
  2.1940000E-02   -1.5093152E-12
  2.1974999E-02   -7.6381880E-13
  2.2010000E-02    1.3845746E-12
  2.2045000E-02    1.5095558E-12
  2.2080000E-02   -9.0553281E-13
  2.2115000E-02   -2.1401678E-12
  2.2150001E-02    7.9134812E-14
  2.2185000E-02    2.4853995E-12
  2.2220001E-02    1.0104370E-12
  2.2255000E-02   -2.3925894E-12
  2.2290001E-02   -2.2010124E-12
  2.2325000E-02    1.7635072E-12
  2.2360001E-02    3.2681232E-12
  2.2395000E-02   -5.8817518E-13
  2.2430001E-02   -3.9575227E-12
  2.2465000E-02   -1.0325050E-12
  2.2500001E-02    4.0311881E-12
  2.2535000E-02    2.8822730E-12
  2.2569999E-02   -3.3197689E-12
  2.2605000E-02   -4.6478073E-12
  2.2639999E-02    1.7722306E-12
  2.2675000E-02    5.9608048E-12
  2.2709999E-02    5.0836467E-13
  2.2745000E-02   -6.4596189E-12
  2.2779999E-02   -3.2527717E-12
  2.2815000E-02    5.8619780E-12
  2.2849999E-02    6.0438820E-12
  2.2885000E-02   -4.0365081E-12
  2.2919999E-02   -8.3681881E-12
  2.2955000E-02    1.0579141E-12
  2.2990000E-02    9.6951960E-12
  2.3025000E-02    2.7668328E-12
  2.3060000E-02   -9.5755166E-12
  2.3095001E-02   -6.9127182E-12
  2.3130000E-02    7.7409502E-12
  2.3165001E-02    1.0694994E-11
  2.3200000E-02   -4.1878718E-12
  2.3235001E-02   -1.3367987E-11
  2.3270000E-02   -7.7465958E-13
  2.3305001E-02    1.4252623E-11
  2.3340000E-02    6.5275311E-12
  2.3375001E-02   -1.2872982E-11
  2.3410000E-02   -1.2202733E-11
  2.3445001E-02    9.0774202E-12
  2.3480000E-02    1.6800675E-11
  2.3514999E-02   -3.1191631E-12
  2.3550000E-02   -1.9351035E-11
  2.3584999E-02   -4.3256444E-12
  2.3620000E-02    1.9093130E-11
  2.3654999E-02    1.2215637E-11
  2.3690000E-02   -1.5644722E-11
  2.3724999E-02   -1.9277514E-11
  2.3760000E-02    9.1261191E-12
  2.3794999E-02    2.4201894E-11
  2.3830000E-02   -2.0921162E-13
  2.3864999E-02   -2.5873479E-11
  2.3900000E-02   -9.9287063E-12
  2.3934999E-02    2.3596132E-11
  2.3970000E-02    1.9749870E-11
  2.4005000E-02   -1.7270591E-11
  2.4040001E-02   -2.7586896E-11
  2.4075000E-02    7.4837142E-12
  2.4110001E-02    3.1924654E-11
  2.4145000E-02    4.5180032E-12
  2.4180001E-02   -3.1687181E-11
  2.4215000E-02   -1.6979551E-11
  2.4250001E-02    2.6474935E-11
  2.4285000E-02    2.7898725E-11
  2.4320001E-02   -1.6701236E-11
  2.4355000E-02   -3.5358761E-11
  2.4390001E-02    3.5921403E-12
  2.4425000E-02    3.7876383E-11
  2.4460001E-02    1.0964586E-11
  2.4495000E-02   -3.4699302E-11
  2.4529999E-02   -2.4705356E-11
  2.4565000E-02    2.5990888E-11
  2.4599999E-02    3.5366536E-11
  2.4635000E-02   -1.2859299E-11
  2.4669999E-02   -4.1086391E-11
  2.4705000E-02   -2.7881775E-12
  2.4739999E-02    4.0754462E-11
  2.4775000E-02    1.8545611E-11
  2.4809999E-02   -3.4239910E-11
  2.4845000E-02   -3.1916705E-11
  2.4879999E-02    2.2445478E-11
  2.4915000E-02    4.0752918E-11
  2.4950000E-02   -7.1719462E-12
  2.4985000E-02   -4.3639137E-11
  2.5020000E-02   -9.1877434E-12
  2.5055001E-02    4.0149092E-11
  2.5090000E-02    2.4068122E-11
  2.5125001E-02   -3.0918327E-11
  2.5160000E-02   -3.5183571E-11
  2.5195001E-02    1.7518754E-11
  2.5230000E-02    4.0923653E-11
  2.5265001E-02   -2.1614134E-12
  2.5300000E-02   -4.0614342E-11
  2.5335001E-02   -1.2710716E-11
  2.5370000E-02    3.4597877E-11
  2.5405001E-02    2.4857113E-11
  2.5440000E-02   -2.4121979E-11
  2.5474999E-02   -3.2615400E-11
  2.5510000E-02    1.1069359E-11
  2.5544999E-02    3.5148818E-11
  2.5580000E-02    2.4110345E-12
  2.5614999E-02   -3.2525628E-11
  2.5650000E-02   -1.4292055E-11
  2.5684999E-02    2.5628971E-11
  2.5720000E-02    2.3000544E-11
  2.5754999E-02   -1.5930847E-11
  2.5790000E-02   -2.7638626E-11
  2.5824999E-02    5.1838772E-12
  2.5860000E-02    2.8065173E-11
  2.5895000E-02    4.9062117E-12
  2.5930000E-02   -2.4835139E-11
  2.5965000E-02   -1.2966105E-11
  2.6000001E-02    1.9022667E-11
  2.6035000E-02    1.8150984E-11
  2.6070001E-02   -1.1972557E-11
  2.6105000E-02   -2.0228607E-11
  2.6140001E-02    5.0278661E-12
  2.6175000E-02    1.9546765E-11
  2.6210001E-02    7.1923104E-13
  2.6245000E-02   -1.6895855E-11
  2.6280001E-02   -4.6121644E-12
  2.6315000E-02    1.3291104E-11
  2.6350001E-02    6.5117651E-12
  2.6385000E-02   -9.7225041E-12
  2.6419999E-02   -6.7607604E-12
  2.6455000E-02    6.9274890E-12
  2.6489999E-02    6.0450772E-12
  2.6525000E-02   -5.2291175E-12
  2.6559999E-02   -5.1787650E-12
  2.6595000E-02    4.4738080E-12
  2.6629999E-02    4.8504738E-12
  2.6665000E-02   -4.0981788E-12
  2.6699999E-02   -5.3968613E-12
  2.6735000E-02    3.3194005E-12
  2.6769999E-02    6.6739964E-12
  2.6805000E-02   -1.3951042E-12
  2.6839999E-02   -8.0597412E-12
  2.6875000E-02   -2.1117019E-12
  2.6910000E-02    8.5870399E-12
  2.6945001E-02    7.1178783E-12
  2.6980000E-02   -7.1944018E-12