 -4.8000002E-03    1.0000000E-24
 -4.7650002E-03    1.0000002E-24
 -4.7300002E-03    1.0000001E-24
 -4.6950001E-03    1.0000000E-24
 -4.6600001E-03    1.0000002E-24
 -4.6250001E-03    1.0000002E-24
 -4.5900000E-03    1.0000002E-24
 -4.5550000E-03    1.0000000E-24
 -4.5200000E-03    1.0000000E-24
 -4.4849999E-03    1.0000002E-24
 -4.4499999E-03    1.0000002E-24
 -4.4149999E-03    9.9999972E-25
 -4.3799998E-03    1.0000001E-24
 -4.3449998E-03    1.0000003E-24
 -4.3100002E-03    1.0000001E-24
 -4.2750002E-03    1.0000002E-24
 -4.2400002E-03    1.0000002E-24
 -4.2050001E-03    9.9999992E-25
 -4.1700001E-03    1.0000002E-24
 -4.1350001E-03    1.0000001E-24
 -4.1000000E-03    9.9999953E-25
 -4.0650000E-03    1.0000002E-24
 -4.0300000E-03    1.0000005E-24
 -3.9949999E-03    9.9999943E-25
 -3.9599999E-03    9.9999943E-25
 -3.9249999E-03    1.0000004E-24
 -3.8900001E-03    1.0000001E-24
 -3.8550000E-03    9.9999982E-25
 -3.8200000E-03    1.0000005E-24
 -3.7849999E-03    1.0000005E-24
 -3.7499999E-03    9.9999982E-25
 -3.7150001E-03    1.0000004E-24
 -3.6800001E-03    1.0000006E-24
 -3.6450000E-03    9.9999963E-25
 -3.6100000E-03    9.9999963E-25
 -3.5750000E-03    1.0000005E-24
 -3.5399999E-03    1.0000000E-24
 -3.5049999E-03    9.9999953E-25
 -3.4700001E-03    1.0000004E-24
 -3.4350001E-03    1.0000005E-24
 -3.4000000E-03    9.9999953E-25
 -3.3650000E-03    9.9999972E-25
 -3.3300000E-03    1.0000006E-24
 -3.2949999E-03    1.0000002E-24
 -3.2599999E-03    9.9999953E-25
 -3.2250001E-03    9.9999972E-25
 -3.1900001E-03    1.0000004E-24
 -3.1550000E-03    1.0000001E-24
 -3.1200000E-03    1.0000002E-24
 -3.0850000E-03    1.0000008E-24
 -3.0499999E-03    1.0000005E-24
 -3.0149999E-03    9.9999972E-25
 -2.9800001E-03    9.9999992E-25
 -2.9450001E-03    1.0000004E-24
 -2.9100000E-03    9.9999982E-25
 -2.8750000E-03    9.9999963E-25
 -2.8400000E-03    1.0000002E-24
 -2.8049999E-03    1.0000003E-24
 -2.7699999E-03    9.9999982E-25
 -2.7350001E-03    1.0000002E-24
 -2.7000001E-03    1.0000009E-24
 -2.6650000E-03    1.0000000E-24
 -2.6300000E-03    9.9999903E-25
 -2.5950000E-03    9.9999963E-25
 -2.5599999E-03    1.0000002E-24
 -2.5249999E-03    1.0000007E-24
 -2.4900001E-03    1.0000010E-24
 -2.4550001E-03    1.0000007E-24
 -2.4200000E-03    1.0000001E-24
 -2.3850000E-03    9.9999963E-25
 -2.3500000E-03    9.9999923E-25
 -2.3149999E-03    9.9999933E-25
 -2.2799999E-03    9.9999972E-25
 -2.2450001E-03    1.0000005E-24
 -2.2100001E-03    1.0000005E-24
 -2.1750000E-03    9.9999972E-25
 -2.1400000E-03    9.9999933E-25
 -2.1050000E-03    1.0000004E-24
 -2.0699999E-03    1.0000010E-24
 -2.0349999E-03    1.0000001E-24
 -2.0000001E-03    9.9999943E-25
 -1.9650001E-03    1.0000007E-24
 -1.9300000E-03    1.0000011E-24
 -1.8950000E-03    9.9999953E-25
 -1.8600000E-03    9.9999963E-25
 -1.8250000E-03    1.0000010E-24
 -1.7900000E-03    9.9999992E-25
 -1.7550000E-03    9.9999903E-25
 -1.7199999E-03    1.0000001E-24
 -1.6850000E-03    1.0000004E-24
 -1.6500000E-03    1.0000000E-24
 -1.6150000E-03    1.0000002E-24
 -1.5800000E-03    9.9999903E-25
 -1.5450000E-03    9.9999884E-25
 -1.5100000E-03    1.0000004E-24
 -1.4750001E-03    1.0000010E-24
 -1.4400000E-03    1.0000005E-24
 -1.4050000E-03    1.0000008E-24
 -1.3700000E-03    1.0000003E-24
 -1.3350000E-03    9.9999953E-25
 -1.3000000E-03    9.9999943E-25
 -1.2650000E-03    9.9999933E-25
 -1.2300001E-03    1.0000000E-24
 -1.1950000E-03    1.0000010E-24
 -1.1600000E-03    9.9999982E-25
 -1.1250000E-03    9.9999893E-25
 -1.0900000E-03    1.0000005E-24
 -1.0550000E-03    1.0000005E-24
 -1.0200000E-03    9.9999923E-25
 -9.8500005E-04    9.9999972E-25
 -9.5000002E-04    1.0000003E-24
 -9.1499998E-04    1.0000000E-24
 -8.8000001E-04    1.0000005E-24
 -8.4499997E-04    1.0000008E-24
 -8.1000000E-04    1.0000005E-24
 -7.7500002E-04    9.9999992E-25
 -7.3999999E-04    9.9999943E-25
 -7.0500001E-04    9.9999953E-25
 -6.6999998E-04    9.9999972E-25
 -6.3500000E-04    9.9999982E-25
 -6.0000003E-04    1.0000005E-24
 -5.6499999E-04    1.0000005E-24
 -5.3000002E-04    9.9999953E-25
 -4.9499999E-04    9.9999992E-25
 -4.6000001E-04    1.0000008E-24
 -4.2500001E-04    1.0000004E-24
 -3.9000000E-04    1.0000002E-24
 -3.5500000E-04    1.0000005E-24
 -3.1999999E-04    1.0000006E-24
 -2.8499999E-04    9.9999943E-25
 -2.5000001E-04    9.9999913E-25
 -2.1499999E-04    1.0000007E-24
 -1.8000000E-04    1.0000005E-24
 -1.4500000E-04    9.9999893E-25
 -1.1000000E-04    9.9999963E-25
 -7.5000004E-05    1.0000012E-24
 -3.9999999E-05    1.0000000E-24
 -4.9999999E-06    9.9999864E-25
  2.9999999E-05    1.0000000E-24
  6.5000000E-05    1.0000011E-24
  9.9999997E-05    9.9999943E-25
  1.3499999E-04    9.9999943E-25
  1.7000000E-04    1.0000020E-24
  2.0500000E-04    1.0000013E-24
  2.3999999E-04    9.9999854E-25
  2.7500000E-04    9.9999893E-25
  3.1000000E-04    1.0000008E-24
  3.4500001E-04    1.0000001E-24
  3.8000001E-04    9.9999933E-25
  4.1499999E-04    1.0000012E-24
  4.4999999E-04    1.0000008E-24
  4.8500000E-04    9.9999844E-25
  5.2000000E-04    9.9999933E-25
  5.5499998E-04    1.0000004E-24
  5.9000001E-04    9.9999923E-25
  6.2499999E-04    1.0000004E-24
  6.6000002E-04    1.0000020E-24
  6.9500000E-04    1.0000000E-24
  7.3000003E-04    9.9999903E-25
  7.6500000E-04    1.0000001E-24
  7.9999998E-04    1.0000008E-24
  8.3500001E-04    1.0000012E-24
  8.6999999E-04    9.9999963E-25
  9.0500002E-04    9.9999903E-25
  9.4000000E-04    1.0000008E-24
  9.7499997E-04    1.0000003E-24
  1.0100000E-03    9.9999854E-25
  1.0450000E-03    1.0000005E-24
  1.0800000E-03    1.0000015E-24
  1.1150000E-03    9.9999874E-25
  1.1500000E-03    9.9999963E-25
  1.1849999E-03    1.0000014E-24
  1.2200000E-03    9.9999903E-25
  1.2550000E-03    9.9999893E-25
  1.2900000E-03    1.0000014E-24
  1.3250000E-03    9.9999982E-25
  1.3600000E-03    9.9999972E-25
  1.3950000E-03    1.0000010E-24
  1.4299999E-03    9.9999923E-25
  1.4650000E-03    9.9999874E-25
  1.5000000E-03    1.0000011E-24
  1.5350000E-03    1.0000013E-24
  1.5700000E-03    1.0000004E-24
  1.6050000E-03    1.0000004E-24
  1.6400000E-03    9.9999943E-25
  1.6749999E-03    9.9999923E-25
  1.7100000E-03    9.9999972E-25
  1.7450000E-03    9.9999943E-25
  1.7800000E-03    1.0000004E-24
  1.8150000E-03    1.0000014E-24
  1.8500000E-03    9.9999992E-25
  1.8850000E-03    9.9999943E-25
  1.9200000E-03    1.0000007E-24
  1.9550000E-03    9.9999982E-25
  1.9900000E-03    9.9999903E-25
  2.0250001E-03    1.0000002E-24
  2.0600001E-03    1.0000006E-24
  2.0949999E-03    1.0000002E-24
  2.1299999E-03    1.0000002E-24
  2.1650000E-03    1.0000005E-24
  2.2000000E-03    1.0000001E-24
  2.2350000E-03    9.9999992E-25
  2.2700001E-03    9.9999943E-25
  2.3050001E-03    9.9999992E-25
  2.3399999E-03    1.0000012E-24
  2.3749999E-03    1.0000004E-24
  2.4100000E-03    9.9999982E-25
  2.4450000E-03    1.0000008E-24
  2.4800000E-03    1.0000003E-24
  2.5150001E-03    9.9999864E-25
  2.5500001E-03    9.9999953E-25
  2.5849999E-03    1.0000009E-24
  2.6199999E-03    9.9999963E-25
  2.6550000E-03    9.9999963E-25
  2.6900000E-03    1.0000009E-24
  2.7250000E-03    9.9999992E-25
  2.7600001E-03    9.9999953E-25
  2.7950001E-03    1.0000010E-24
  2.8299999E-03    1.0000006E-24
  2.8649999E-03    9.9999923E-25
  2.9000000E-03    1.0000006E-24
  2.9350000E-03    1.0000019E-24
  2.9700000E-03    9.9999992E-25
  3.0050001E-03    9.9999834E-25
  3.0400001E-03    9.9999943E-25
  3.0749999E-03    1.0000001E-24
  3.1099999E-03    9.9999972E-25
  3.1450000E-03    9.9999972E-25
  3.1800000E-03    1.0000009E-24
  3.2150000E-03    1.0000011E-24
  3.2500001E-03    9.9999982E-25
  3.2850001E-03    9.9999953E-25
  3.3199999E-03    1.0000002E-24
  3.3549999E-03    9.9999953E-25
  3.3900000E-03    1.0000001E-24
  3.4250000E-03    1.0000004E-24
  3.4600000E-03    9.9999923E-25
  3.4950001E-03    1.0000005E-24
  3.5300001E-03    1.0000025E-24
  3.5649999E-03    1.0000001E-24
  3.5999999E-03    9.9999854E-25
  3.6350000E-03    1.0000009E-24
  3.6700000E-03    9.9999992E-25
  3.7050000E-03    9.9999736E-25
  3.7400001E-03    1.0000002E-24
  3.7750001E-03    1.0000027E-24
  3.8099999E-03    9.9999992E-25
  3.8449999E-03    9.9999893E-25
  3.8800000E-03    1.0000017E-24
  3.9149998E-03    1.0000008E-24
  3.9499998E-03    9.9999716E-25
  3.9849998E-03    9.9999884E-25
  4.0199999E-03    1.0000033E-24
  4.0549999E-03    1.0000009E-24
  4.0899999E-03    9.9999706E-25
  4.1250000E-03    1.0000003E-24
  4.1600000E-03    1.0000027E-24
  4.1950000E-03    9.9999854E-25
  4.2300001E-03    9.9999864E-25
  4.2650001E-03    1.0000029E-24
  4.3000001E-03    1.0000005E-24
  4.3350002E-03    9.9999686E-25
  4.3700002E-03    1.0000003E-24
  4.4049998E-03    1.0000032E-24
  4.4399998E-03    1.0000007E-24
  4.4749998E-03    9.9999884E-25
  4.5099999E-03    9.9999943E-25
  4.5449999E-03    9.9999933E-25
  4.5799999E-03    9.9999815E-25
  4.6150000E-03    9.9999824E-25
  4.6500000E-03    1.0000002E-24
  4.6850001E-03    1.0000025E-24
  4.7200001E-03    1.0000023E-24
  4.7550001E-03    1.0000009E-24
  4.7900002E-03    1.0000000E-24
  4.8250002E-03    1.0000002E-24
  4.8600002E-03    1.0000009E-24
  4.8949998E-03    9.9999992E-25
  4.9299998E-03    9.9999844E-25
  4.9649999E-03    1.0000006E-24
  4.9999999E-03    1.0000009E-24
  5.0349999E-03    9.9999706E-25
  5.0700000E-03    9.9999824E-25
  5.1050000E-03    1.0000025E-24
  5.1400000E-03    1.0000008E-24
  5.1750001E-03    9.9999903E-25
  5.2100001E-03    1.0000008E-24
  5.2450001E-03    9.9999963E-25
  5.2800002E-03    9.9999785E-25
  5.3150002E-03    1.0000004E-24
  5.3500002E-03    9.9999982E-25
  5.3849998E-03    9.9999834E-25
  5.4199998E-03    1.0000025E-24
  5.4549999E-03    1.0000042E-24
  5.4899999E-03    1.0000010E-24
  5.5249999E-03    9.9999982E-25
  5.5600000E-03    9.9999884E-25
  5.5950000E-03    9.9999824E-25
  5.6300000E-03    9.9999982E-25
  5.6650001E-03    9.9999943E-25
  5.7000001E-03    1.0000002E-24
  5.7350001E-03    1.0000027E-24
  5.7700002E-03    1.0000013E-24
  5.8050002E-03    9.9999765E-25
  5.8400002E-03    9.9999874E-25
  5.8749998E-03    1.0000009E-24
  5.9099998E-03    1.0000000E-24
  5.9449999E-03    9.9999953E-25
  5.9799999E-03    9.9999982E-25
  6.0149999E-03    9.9999982E-25
  6.0500000E-03    1.0000008E-24
  6.0850000E-03    1.0000010E-24
  6.1200000E-03    9.9999933E-25
  6.1550001E-03    9.9999953E-25
  6.1900001E-03    1.0000007E-24
  6.2250001E-03    1.0000000E-24
  6.2600002E-03    9.9999913E-25
  6.2950002E-03    9.9999923E-25
  6.3299998E-03    1.0000003E-24
  6.3649998E-03    1.0000009E-24
  6.3999998E-03    9.9999992E-25
  6.4349999E-03    1.0000004E-24
  6.4699999E-03    1.0000018E-24
  6.5049999E-03    9.9999953E-25
  6.5400000E-03    9.9999884E-25
  6.5750000E-03    1.0000020E-24
  6.6100000E-03    1.0000006E-24
  6.6450001E-03    9.9999706E-25
  6.6800001E-03    9.9999992E-25
  6.7150001E-03    1.0000021E-24
  6.7500002E-03    9.9999923E-25
  6.7850002E-03    9.9999943E-25
  6.8199998E-03    1.0000008E-24
  6.8549998E-03    9.9999982E-25
  6.8899998E-03    9.9999992E-25
  6.9249999E-03    9.9999933E-25
  6.9599999E-03    9.9999933E-25
  6.9949999E-03    1.0000022E-24
  7.0300000E-03    1.0000021E-24
  7.0650000E-03    9.9999874E-25
  7.1000000E-03    9.9999972E-25
  7.1350001E-03    1.0000010E-24
  7.1700001E-03    9.9999775E-25
  7.2050001E-03    9.9999755E-25
  7.2400002E-03    1.0000009E-24
  7.2750002E-03    1.0000014E-24
  7.3099998E-03    1.0000009E-24
  7.3449998E-03    1.0000006E-24
  7.3799998E-03    9.9999953E-25
  7.4149999E-03    1.0000002E-24
  7.4499999E-03    1.0000008E-24
  7.4850000E-03    9.9999913E-25
  7.5200000E-03    9.9999982E-25
  7.5550000E-03    1.0000019E-24
  7.5900001E-03    1.0000002E-24
  7.6250001E-03    9.9999864E-25
  7.6600001E-03    9.9999953E-25
  7.6950002E-03    9.9999923E-25
  7.7300002E-03    9.9999933E-25
  7.7650002E-03    1.0000009E-24
  7.7999998E-03    1.0000005E-24
  7.8349998E-03    1.0000007E-24
  7.8699999E-03    1.0000007E-24
  7.9049999E-03    9.9999864E-25
  7.9399999E-03    9.9999972E-25
  7.9750000E-03    1.0000006E-24
  8.0100000E-03    9.9999765E-25
  8.0450000E-03    1.0000018E-24
  8.0800001E-03    1.0000084E-24
  8.1150001E-03    9.9999933E-25
  8.1500001E-03    9.9998947E-25
  8.1850002E-03    1.0000003E-24
  8.2200002E-03    1.0000134E-24
  8.2550002E-03    1.0000015E-24
  8.2900003E-03    9.9998059E-25
  8.3250003E-03    9.9999203E-25
  8.3600003E-03    1.0000308E-24
  8.3950004E-03    1.0000239E-24
  8.4300004E-03    9.9995525E-25
  8.4650004E-03    9.9994825E-25
  8.5000005E-03    1.0000575E-24
  8.5349996E-03    1.0000964E-24
  8.5699996E-03    9.9993405E-25
  8.6049996E-03    9.9982726E-25
  8.6399997E-03    1.0000571E-24
  8.6749997E-03    1.0002986E-24
  8.7099997E-03    9.9999647E-25
  8.7449998E-03    9.9951388E-25
  8.7799998E-03    9.9986710E-25
  8.8149998E-03    1.0007475E-24
  8.8499999E-03    1.0004169E-24
  8.8849999E-03    9.9891139E-25
  8.9199999E-03    9.9903968E-25
  8.9550000E-03    1.0014808E-24
  8.9900000E-03    1.0019245E-24
  9.0250000E-03    9.9816582E-25
  9.0600001E-03    9.9647115E-25
  9.0950001E-03    1.0019478E-24
  9.1300001E-03    1.0060528E-24
  9.1650002E-03    9.9857583E-25
  9.2000002E-03    9.9020138E-25
  9.2350002E-03    9.9956486E-25
  9.2700003E-03    1.0150210E-24
  9.3050003E-03    1.0047784E-24
  9.3400003E-03    9.7824501E-25
  9.3750004E-03    9.8662715E-25
  9.4100004E-03    1.0295056E-24
  9.4450004E-03    1.0287506E-24
  9.4799995E-03    9.6326740E-25
  9.5149996E-03    9.4572412E-25
  9.5499996E-03    1.0400506E-24
  9.5849996E-03    1.0939838E-24
  9.6199997E-03    9.6692249E-25
  9.6549997E-03    8.4805160E-25
  9.6899997E-03    1.0049370E-24
  9.7249998E-03    1.2308780E-24
  9.7599998E-03    1.0615318E-24
  9.7949998E-03    6.7059700E-25
  9.8299999E-03    8.0847164E-25
  9.8649999E-03    1.4374829E-24
  9.8999999E-03    1.4193409E-24
  9.9350000E-03    4.7072040E-25
  9.9700000E-03    2.1246255E-25
  1.0005000E-02    1.5529037E-24
  1.0040000E-02    2.3423016E-24
  1.0075000E-02    5.8304438E-25
  1.0110000E-02   -1.1220185E-24
  1.0145000E-02    9.7465984E-25
  1.0180000E-02    4.1352195E-24
  1.0215000E-02    1.9917791E-24
  1.0250000E-02   -3.3230746E-24
  1.0285000E-02   -1.7811233E-24
  1.0320000E-02    6.5014035E-24
  1.0355000E-02    6.7676590E-24
  1.0390000E-02   -5.2785582E-24
  1.0425000E-02   -9.3649157E-24
  1.0460000E-02    6.9492051E-24
  1.0495000E-02    1.7936611E-23
  1.0530000E-02   -2.3721609E-24
  1.0565000E-02   -2.4626149E-23
  1.0600000E-02   -2.1458229E-24
  1.0635000E-02    3.7071496E-23
  1.0670000E-02    1.6916729E-23
  1.0705000E-02   -4.5974151E-23
  1.0740000E-02   -3.6816082E-23
  1.0775000E-02    5.6503513E-23
  1.0810000E-02    7.2993886E-23
  1.0845000E-02   -5.5553043E-23
  1.0880000E-02   -1.2020299E-22
  1.0915000E-02    4.2921168E-23
  1.0950000E-02    1.8755784E-22
  1.0985000E-02    1.4037839E-24
  1.1020000E-02   -2.6452796E-22
  1.1055000E-02   -8.5540479E-23
  1.1090000E-02    3.5000895E-22
  1.1125000E-02    2.3708257E-22
  1.1160000E-02   -4.1643414E-22
  1.1195000E-02   -4.6882324E-22
  1.1230000E-02    4.3715925E-22
  1.1265000E-02    8.0591969E-22
  1.1300000E-02   -3.4973791E-22
  1.1335000E-02   -1.2454482E-21
  1.1370000E-02    8.4414384E-23
  1.1405000E-02    1.7753952E-21
  1.1440000E-02    4.6805508E-22
  1.1475000E-02   -2.3245613E-21
  1.1510000E-02   -1.4180789E-21
  1.1545000E-02    2.7718461E-21
  1.1580000E-02    2.8922649E-21
  1.1615000E-02   -2.8891098E-21
  1.1650000E-02   -4.9688614E-21
  1.1685000E-02    2.3504666E-21
  1.1720000E-02    7.6568103E-21
  1.1755000E-02   -6.8849054E-22
  1.1790000E-02   -1.0786859E-20
  1.1825000E-02   -2.6615855E-21
  1.1860000E-02    1.3943116E-20
  1.1895000E-02    8.3405356E-21
  1.1930000E-02   -1.6313692E-20
  1.1965000E-02   -1.6917351E-20
  1.2000000E-02    1.6606236E-20
  1.2035000E-02    2.8720758E-20
  1.2070000E-02   -1.2931775E-20
  1.2105000E-02   -4.3505580E-20
  1.2140000E-02    2.8352900E-21
  1.2175000E-02    6.0076209E-20
  1.2210000E-02    1.6587299E-20
  1.2245000E-02   -7.5761259E-20
  1.2280000E-02   -4.8272994E-20
  1.2315000E-02    8.5924246E-20
  1.2350000E-02    9.4514452E-20
  1.2385000E-02   -8.3500057E-20
  1.2420000E-02   -1.5581962E-19
  1.2455000E-02    5.8863420E-20
  1.2490000E-02    2.2940047E-19
  1.2525000E-02   -1.5614112E-22
  1.2560000E-02   -3.0722742E-19
  1.2595000E-02   -1.0548678E-19
  1.2630000E-02    3.7396435E-19
  1.2665000E-02    2.6959305E-19
  1.2700000E-02   -4.0505675E-19
  1.2735000E-02   -4.9848292E-19
  1.2770000E-02    3.6572457E-19
  1.2805000E-02    7.8783659E-19
  1.2840000E-02   -2.1161812E-19
  1.2875000E-02   -1.1157376E-18
  1.2910000E-02   -1.0761467E-19
  1.2945000E-02    1.4349584E-18
  1.2980000E-02    6.4082184E-19
  1.3015000E-02   -1.6656260E-18
  1.3050000E-02   -1.4226718E-18
  1.3085000E-02    1.6905188E-18
  1.3120000E-02    2.4553996E-18
  1.3155000E-02   -1.3558116E-18
  1.3190000E-02   -3.6852910E-18
  1.3225000E-02    4.8105133E-19
  1.3260000E-02    4.9760042E-18
  1.3295000E-02    1.1178287E-18
  1.3330000E-02   -6.0827318E-18
  1.3365000E-02   -3.5888104E-18
  1.3400000E-02    6.6340348E-18
  1.3435000E-02    6.9857479E-18
  1.3470000E-02   -6.1305680E-18
  1.3505000E-02   -1.1192990E-17
  1.3540000E-02    3.9722723E-18
  1.3575000E-02    1.5839225E-17
  1.3610000E-02    4.7364062E-19
  1.3645000E-02   -2.0213010E-17
  1.3680000E-02   -7.7535493E-18
  1.3715000E-02    2.3200659E-17
  1.3750000E-02    1.8151005E-17
  1.3785000E-02   -2.3274811E-17
  1.3820000E-02   -3.1458486E-17
  1.3855000E-02    1.8567545E-17
  1.3890000E-02    4.6714502E-17
  1.3925000E-02   -7.0648561E-18
  1.3960000E-02   -6.1946358E-17
  1.3995000E-02   -1.3048076E-17
  1.4030000E-02    7.3977800E-17
  1.4065000E-02    4.2877036E-17
  1.4100000E-02   -7.8383172E-17
  1.4135000E-02   -8.2157630E-17
  1.4170000E-02    6.9684990E-17
  1.4205000E-02    1.2850162E-16
  1.4240000E-02   -4.1895252E-17
  1.4275000E-02   -1.7665965E-16
  1.4310000E-02   -1.0519975E-17
  1.4345000E-02    2.1797682E-16
  1.4380000E-02    9.1226600E-17
  1.4415000E-02   -2.4025629E-16
  1.4450000E-02   -2.0020469E-16
  1.4485000E-02    2.2830246E-16
  1.4520000E-02    3.3169583E-16
  1.4555000E-02   -1.6539001E-16
  1.4590000E-02   -4.7223024E-16
  1.4625000E-02    3.5857866E-17
  1.4660000E-02    5.9919539E-16
  1.4695000E-02    1.7112325E-16
  1.4730000E-02   -6.8053618E-16
  1.4765000E-02   -4.5679248E-16
  1.4800000E-02    6.7624395E-16
  1.4835000E-02    8.0750774E-16
  1.4870000E-02   -5.4226838E-16
  1.4905000E-02   -1.1897882E-15
  1.4940000E-02    2.3722722E-16
  1.4975000E-02    1.5468541E-15
  1.5010000E-02    2.6796740E-16
  1.5045000E-02   -1.7981944E-15
  1.5080000E-02   -9.7823962E-16
  1.5115000E-02    1.8436746E-15
  1.5150000E-02    1.8614737E-15
  1.5185000E-02   -1.5736038E-15
  1.5220000E-02   -2.8367781E-15
  1.5255000E-02    8.8558613E-16
  1.5290000E-02    3.7669575E-15
  1.5325000E-02    2.9211255E-16
  1.5360000E-02   -4.4585676E-15
  1.5395000E-02   -1.9722976E-15
  1.5430000E-02    4.6731083E-15
  1.5465000E-02    4.0792573E-15
  1.5500000E-02   -4.1521737E-15
  1.5535000E-02   -6.4229280E-15
  1.5570000E-02    2.6579769E-15
  1.5605000E-02    8.6840901E-15
  1.5640000E-02   -2.7732679E-17
  1.5675001E-02   -1.0418040E-14
  1.5710000E-02   -3.7627109E-15
  1.5745001E-02    1.1084140E-14
  1.5780000E-02    8.5346362E-15
  1.5814999E-02   -1.0106527E-14
  1.5850000E-02   -1.3853995E-14
  1.5884999E-02    6.9673936E-15
  1.5920000E-02    1.9006213E-14
  1.5954999E-02   -1.3271035E-15
  1.5990000E-02   -2.3013746E-14
  1.6024999E-02   -6.8395666E-15
  1.6060000E-02    2.4711458E-14
  1.6094999E-02    1.7113691E-14
  1.6130000E-02   -2.2886676E-14
  1.6164999E-02   -2.8534199E-14
  1.6200000E-02    1.6483774E-14
  1.6235000E-02    3.9564160E-14
  1.6270000E-02   -4.8570284E-15
  1.6305000E-02   -4.8152796E-14
  1.6340001E-02   -1.1956449E-14
  1.6375000E-02    5.1916289E-14
  1.6410001E-02    3.2991791E-14
  1.6445000E-02   -4.8447411E-14
  1.6480001E-02   -5.6193640E-14
  1.6515000E-02    3.5740870E-14
  1.6550001E-02    7.8395244E-14
  1.6585000E-02   -1.2696390E-14
  1.6620001E-02   -9.5499455E-14
  1.6655000E-02   -2.0371329E-14
  1.6690001E-02    1.0289021E-13
  1.6725000E-02    6.1306754E-14
  1.6759999E-02   -9.6079869E-14
  1.6795000E-02   -1.0588430E-13
  1.6829999E-02    7.1545641E-14
  1.6865000E-02    1.4787700E-13
  1.6899999E-02   -2.7667237E-14
  1.6935000E-02   -1.7951645E-13
  1.6969999E-02   -3.4388098E-14
  1.7005000E-02    1.9237510E-13
  1.7039999E-02    1.1000350E-13
  1.7075000E-02   -1.7864215E-13
  1.7109999E-02   -1.9087585E-13
  1.7145000E-02    1.3267038E-13
  1.7180000E-02    2.6537014E-13
  1.7215000E-02   -5.2591490E-14
  1.7250000E-02   -3.1957268E-13
  1.7285001E-02   -5.8268643E-14
  1.7320000E-02    3.3906344E-13
  1.7355001E-02    1.9052338E-13
  1.7390000E-02   -3.1126203E-13
  1.7425001E-02   -3.2868603E-13
  1.7460000E-02    2.2808716E-13
  1.7495001E-02    4.5220842E-13
  1.7530000E-02   -8.8533185E-14
  1.7565001E-02   -5.3769695E-13
  1.7600000E-02   -9.9355101E-14
  1.7635001E-02    5.6219591E-13
  1.7670000E-02    3.1759930E-13
  1.7704999E-02   -5.0721330E-13
  1.7740000E-02   -5.3896286E-13
  1.7774999E-02    3.6292361E-13
  1.7810000E-02    7.2939273E-13
  1.7844999E-02   -1.3183942E-13
  1.7880000E-02   -8.5224693E-13
  1.7914999E-02   -1.6885388E-13
  1.7950000E-02    8.7391596E-13
  1.7984999E-02    5.0699695E-13
  1.8020000E-02   -7.7015743E-13
  1.8054999E-02   -8.3776806E-13
  1.8090000E-02    5.3208398E-13
  1.8124999E-02    1.1086431E-12
  1.8160000E-02   -1.7072839E-13
  1.8195000E-02   -1.2667172E-12
  1.8230001E-02   -2.8099298E-13
  1.8265000E-02    1.2675002E-12
  1.8300001E-02    7.6977687E-13
  1.8335000E-02   -1.0838822E-12
  1.8370001E-02   -1.2272203E-12
  1.8405000E-02    7.1368616E-13
  1.8440001E-02    1.5787260E-12
  1.8475000E-02   -1.8415804E-13
  1.8510001E-02   -1.7549331E-12
  1.8545000E-02   -4.4794881E-13
  1.8580001E-02    1.7041115E-12
  1.8615000E-02    1.1013818E-12
  1.8650001E-02   -1.4033596E-12
  1.8685000E-02   -1.6804448E-12
  1.8719999E-02    8.6646293E-13
  1.8755000E-02    2.0890360E-12
  1.8789999E-02   -1.4635759E-13
  1.8825000E-02   -2.2466104E-12
  1.8859999E-02   -6.6886010E-13
  1.8895000E-02    2.1035166E-12
  1.8929999E-02    1.4666202E-12
  1.8965000E-02   -1.6527101E-12
  1.8999999E-02   -2.1260988E-12
  1.9035000E-02    9.3536312E-13
  1.9069999E-02    2.5376806E-12
  1.9105000E-02   -3.8496668E-14
  1.9140000E-02   -2.6224405E-12
  1.9175000E-02   -9.1570848E-13
  1.9210000E-02    2.3480274E-12
  1.9245001E-02    1.7879112E-12
  1.9280000E-02   -1.7374860E-12
  1.9315001E-02   -2.4439931E-12
  1.9350000E-02    8.6902317E-13
  1.9385001E-02    2.7783318E-12
  1.9420000E-02    1.3427342E-13
  1.9455001E-02   -2.7335020E-12
  1.9490000E-02   -1.1236009E-12
  1.9525001E-02    2.3122895E-12
  1.9560000E-02    1.9494063E-12
  1.9595001E-02   -1.5790581E-12
  1.9630000E-02   -2.4874319E-12
  1.9664999E-02    6.4994516E-13
  1.9700000E-02    2.6611372E-12
  1.9734999E-02    3.2685741E-13
  1.9770000E-02   -2.4559935E-12
  1.9804999E-02   -1.1977471E-12
  1.9840000E-02    1.9221400E-12
  1.9874999E-02    1.8318667E-12
  1.9910000E-02   -1.1641899E-12
  1.9944999E-02   -2.1446525E-12
  1.9980000E-02    3.2057825E-13
  2.0014999E-02    2.1120610E-12
  2.0050000E-02    4.6318597E-13
  2.0085000E-02   -1.7729689E-12
  2.0120000E-02   -1.0624545E-12
  2.0155000E-02    1.2189290E-12
  2.0190001E-02    1.3969285E-12
  2.0225000E-02   -5.7255372E-13
  2.0260001E-02   -1.4432854E-12
  2.0295000E-02   -3.9815705E-14
  2.0330001E-02    1.2337956E-12
  2.0365000E-02    5.1289837E-13
  2.0400001E-02   -8.4389212E-13
  2.0435000E-02   -7.8021785E-13
  2.0470001E-02    3.7281834E-13
  2.0505000E-02    8.2307701E-13
  2.0540001E-02    8.0202392E-14
  2.0575000E-02   -6.6727624E-13
  2.0609999E-02   -4.3806530E-13
  2.0645000E-02    3.6633137E-13
  2.0679999E-02    6.5551021E-13
  2.0715000E-02    1.8989044E-14
  2.0749999E-02   -7.1432850E-13
  2.0785000E-02   -4.3289870E-13
  2.0819999E-02    6.1433524E-13
  2.0855000E-02    8.2995384E-13
  2.0889999E-02   -3.6414117E-13
  2.0925000E-02   -1.1772366E-12
  2.0959999E-02   -3.3112181E-14
  2.0995000E-02    1.4433786E-12
  2.1029999E-02    5.8815539E-13
  2.1065000E-02   -1.5723789E-12
  2.1100000E-02   -1.3060294E-12
  2.1135001E-02    1.4711559E-12
  2.1170000E-02    2.1492966E-12
  2.1205001E-02   -1.0301024E-12
  2.1240000E-02   -3.0186038E-12
  2.1275001E-02    1.5235823E-13
  2.1310000E-02    3.7473774E-12
  2.1345001E-02    1.2203420E-12
  2.1380000E-02   -4.0883356E-12
  2.1415001E-02   -3.0486551E-12
  2.1450000E-02    3.7332706E-12
  2.1485001E-02    5.1151193E-12
  2.1520000E-02   -2.4166396E-12
  2.1555001E-02   -7.0147980E-12
  2.1590000E-02    3.8080795E-14
  2.1624999E-02    8.2365052E-12
  2.1660000E-02    3.2852341E-12
  2.1694999E-02   -8.2390665E-12
  2.1730000E-02   -7.1798700E-12
  2.1764999E-02    6.5319664E-12
  2.1800000E-02    1.0945614E-11
  2.1834999E-02   -2.8804006E-12
  2.1870000E-02   -1.3617952E-11
  2.1904999E-02   -2.4602956E-12
  2.1940000E-02    1.4255927E-11
  2.1974999E-02    8.7386652E-12
  2.2010000E-02   -1.2205500E-11
  2.2045000E-02   -1.4863123E-11
  2.2080000E-02    7.1945770E-12
  2.2115000E-02    1.9462432E-11
  2.2150001E-02    4.7473169E-13
  2.2185000E-02   -2.1042319E-11
  2.2220001E-02   -9.6358832E-12
  2.2255000E-02    1.8544784E-11
  2.2290001E-02    1.8413156E-11
  2.2325000E-02   -1.1864506E-11
  2.2360001E-02   -2.4844167E-11
  2.2395000E-02    1.7733047E-12
  2.2430001E-02    2.7225437E-11
  2.2465000E-02    1.0244986E-11
  2.2500001E-02   -2.4199974E-11
  2.2535000E-02   -2.1776947E-11
  2.2569999E-02    1.5425609E-11
  2.2605000E-02    2.9794934E-11
  2.2639999E-02   -2.3497927E-12
  2.2675000E-02   -3.1975231E-11
  2.2709999E-02   -1.2300602E-11
  2.2745000E-02    2.7467700E-11
  2.2779999E-02    2.5625805E-11
  2.2815000E-02   -1.6437848E-11
  2.2849999E-02   -3.4548656E-11
  2.2885000E-02    2.6246778E-13
  2.2919999E-02    3.5872791E-11
  2.2955000E-02    1.7424926E-11
  2.2990000E-02   -2.8213688E-11
  2.3025000E-02   -3.1711557E-11
  2.3060000E-02    1.3360794E-11
  2.3095001E-02    3.9116467E-11
  2.3130000E-02    5.4316226E-12
  2.3165001E-02   -3.7916455E-11
  2.3200000E-02   -2.4808331E-11
  2.3235001E-02    2.6824461E-11
  2.3270000E-02    3.9820945E-11
  2.3305001E-02   -6.8287342E-12
  2.3340000E-02   -4.4597215E-11
  2.3375001E-02   -1.6403653E-11
  2.3410000E-02    3.7069011E-11
  2.3445001E-02    3.5903544E-11
  2.3480000E-02   -1.9923006E-11
  2.3514999E-02   -4.7816126E-11
  2.3550000E-02   -3.8957839E-12
  2.3584999E-02    4.9046305E-11
  2.3620000E-02    3.0969022E-11
  2.3654999E-02   -3.5423928E-11
  2.3690000E-02   -5.2776419E-11
  2.3724999E-02    8.2618183E-12
  2.3760000E-02    5.9910764E-11
  2.3794999E-02    2.2948581E-11
  2.3830000E-02   -5.1228115E-11
  2.3864999E-02   -5.0009299E-11
  2.3900000E-02    3.0383564E-11
  2.3934999E-02    6.9876382E-11
  2.3970000E-02    2.3318281E-12
  2.4005000E-02   -7.5593629E-11
  2.4040001E-02   -4.2668105E-11
  2.4075000E-02    5.8164033E-11
  2.4110001E-02    7.4975040E-11
  2.4145000E-02   -2.2155030E-11
  2.4180001E-02   -8.7134952E-11
  2.4215000E-02   -1.7725073E-11
  2.4250001E-02    8.2020835E-11
  2.4285000E-02    5.5975533E-11
  2.4320001E-02   -6.1234004E-11
  2.4355000E-02   -9.0456052E-11
  2.4390001E-02    1.8429955E-11
  2.4425000E-02    1.0443776E-10
  2.4460001E-02    3.6915367E-11
  2.4495000E-02   -8.4569768E-11
  2.4529999E-02   -7.8384466E-11
  2.4565000E-02    4.4957753E-11
  2.4599999E-02    9.7579070E-11
  2.4635000E-02   -2.1979929E-12
  2.4669999E-02   -1.0380301E-10
  2.4705000E-02   -4.8745678E-11
  2.4739999E-02    8.7330899E-11
  2.4775000E-02    1.0110825E-10
  2.4809999E-02   -3.4028017E-11
  2.4845000E-02   -1.2101536E-10
  2.4879999E-02   -3.0699953E-11
  2.4915000E-02    1.0036736E-10
  2.4950000E-02    7.2955891E-11
  2.4985000E-02   -6.9256163E-11
  2.5020000E-02   -1.0227455E-10
  2.5055001E-02    3.1786202E-11
  2.5090000E-02    1.2814261E-10
  2.5125001E-02    3.2817488E-11
  2.5160000E-02   -1.1559421E-10
  2.5195001E-02   -9.6457425E-11
  2.5230000E-02    5.5410627E-11
  2.5265001E-02    1.1006668E-10
  2.5300000E-02   -1.5198950E-12
  2.5335001E-02   -9.3979026E-11
  2.5370000E-02   -2.6262079E-11
  2.5405001E-02    8.7376432E-11
  2.5440000E-02    6.7621998E-11
  2.5474999E-02   -5.7006889E-11
  2.5510000E-02   -1.0655311E-10
  2.5544999E-02   -1.8187866E-11
  2.5580000E-02    8.0401290E-11
  2.5614999E-02    6.6293589E-11
  2.5650000E-02   -1.9921269E-11
  2.5684999E-02   -5.3250394E-11
  2.5720000E-02    6.5614555E-13
  2.5754999E-02    5.0466964E-11
  2.5790000E-02    1.2790716E-11
  2.5824999E-02   -6.7386367E-11
  2.5860000E-02   -7.2084394E-11
  2.5895000E-02    2.2124106E-11
  2.5930000E-02    9.7462018E-11
  2.5965000E-02    5.5701437E-11
  2.6000001E-02   -3.8212086E-11
  2.6035000E-02   -5.5094145E-11
  2.6070001E-02    2.6887978E-12
  2.6105000E-02    2.0261130E-11
  2.6140001E-02   -3.1400653E-11
  2.6175000E-02   -5.2420301E-11
  2.6210001E-02    8.7274198E-12
  2.6245000E-02    6.9775699E-11
  2.6280001E-02    5.6736039E-11
  2.6315000E-02    8.7889080E-12
  2.6350001E-02   -1.9767179E-11
  2.6385000E-02   -4.3883883E-11
  2.6419999E-02   -6.6487572E-11
  2.6455000E-02   -3.5155059E-11
  2.6489999E-02    4.1917223E-11
  2.6525000E-02    6.3681171E-11
  2.6559999E-02    7.1312877E-12
  2.6595000E-02   -1.0300551E-11
  2.6629999E-02    5.5790261E-11
  2.6665000E-02    6.3008258E-11
  2.6699999E-02   -7.0579403E-11
  2.6735000E-02   -1.7123482E-10
  2.6769999E-02   -6.3556369E-11
  2.6805000E-02    1.2068634E-10
  2.6839999E-02    1.3115928E-10
  2.6875000E-02   -5.1789289E-12
  2.6910000E-02   -4.8924146E-11
  2.6945001E-02    4.4610631E-11
  2.6980000E-02    7.1586022E-11