 -4.8000002E-03    1.0000000E-24
 -4.7650002E-03    1.0000002E-24
 -4.7300002E-03    1.0000001E-24
 -4.6950001E-03    1.0000000E-24
 -4.6600001E-03    1.0000003E-24
 -4.6250001E-03    1.0000002E-24
 -4.5900000E-03    9.9999992E-25
 -4.5550000E-03    1.0000002E-24
 -4.5200000E-03    1.0000000E-24
 -4.4849999E-03    9.9999992E-25
 -4.4499999E-03    1.0000002E-24
 -4.4149999E-03    1.0000003E-24
 -4.3799998E-03    9.9999953E-25
 -4.3449998E-03    9.9999972E-25
 -4.3100002E-03    1.0000007E-24
 -4.2750002E-03    1.0000002E-24
 -4.2400002E-03    9.9999982E-25
 -4.2050001E-03    1.0000006E-24
 -4.1700001E-03    1.0000006E-24
 -4.1350001E-03    9.9999943E-25
 -4.1000000E-03    9.9999953E-25
 -4.0650000E-03    1.0000004E-24
 -4.0300000E-03    1.0000001E-24
 -3.9949999E-03    9.9999963E-25
 -3.9599999E-03    1.0000005E-24
 -3.9249999E-03    1.0000007E-24
 -3.8900001E-03    9.9999953E-25
 -3.8550000E-03    9.9999972E-25
 -3.8200000E-03    1.0000005E-24
 -3.7849999E-03    1.0000002E-24
 -3.7499999E-03    9.9999972E-25
 -3.7150001E-03    1.0000005E-24
 -3.6800001E-03    1.0000007E-24
 -3.6450000E-03    9.9999972E-25
 -3.6100000E-03    9.9999953E-25
 -3.5750000E-03    9.9999992E-25
 -3.5399999E-03    9.9999992E-25
 -3.5049999E-03    1.0000000E-24
 -3.4700001E-03    1.0000006E-24
 -3.4350001E-03    1.0000005E-24
 -3.4000000E-03    1.0000002E-24
 -3.3650000E-03    9.9999992E-25
 -3.3300000E-03    9.9999992E-25
 -3.2949999E-03    9.9999972E-25
 -3.2599999E-03    9.9999992E-25
 -3.2250001E-03    1.0000004E-24
 -3.1900001E-03    1.0000002E-24
 -3.1550000E-03    9.9999992E-25
 -3.1200000E-03    1.0000002E-24
 -3.0850000E-03    1.0000004E-24
 -3.0499999E-03    9.9999982E-25
 -3.0149999E-03    9.9999982E-25
 -2.9800001E-03    1.0000005E-24
 -2.9450001E-03    1.0000002E-24
 -2.9100000E-03    9.9999992E-25
 -2.8750000E-03    1.0000001E-24
 -2.8400000E-03    1.0000002E-24
 -2.8049999E-03    1.0000001E-24
 -2.7699999E-03    1.0000002E-24
 -2.7350001E-03    1.0000005E-24
 -2.7000001E-03    1.0000002E-24
 -2.6650000E-03    9.9999982E-25
 -2.6300000E-03    9.9999992E-25
 -2.5950000E-03    1.0000002E-24
 -2.5599999E-03    1.0000003E-24
 -2.5249999E-03    9.9999982E-25
 -2.4900001E-03    9.9999972E-25
 -2.4550001E-03    1.0000003E-24
 -2.4200000E-03    1.0000008E-24
 -2.3850000E-03    1.0000005E-24
 -2.3500000E-03    1.0000000E-24
 -2.3149999E-03    9.9999943E-25
 -2.2799999E-03    9.9999893E-25
 -2.2450001E-03    9.9999943E-25
 -2.2100001E-03    1.0000005E-24
 -2.1750000E-03    1.0000008E-24
 -2.1400000E-03    1.0000004E-24
 -2.1050000E-03    1.0000003E-24
 -2.0699999E-03    1.0000007E-24
 -2.0349999E-03    1.0000002E-24
 -2.0000001E-03    9.9999923E-25
 -1.9650001E-03    1.0000000E-24
 -1.9300000E-03    1.0000008E-24
 -1.8950000E-03    9.9999992E-25
 -1.8600000E-03    9.9999933E-25
 -1.8250000E-03    1.0000001E-24
 -1.7900000E-03    1.0000005E-24
 -1.7550000E-03    1.0000000E-24
 -1.7199999E-03    1.0000002E-24
 -1.6850000E-03    1.0000009E-24
 -1.6500000E-03    1.0000003E-24
 -1.6150000E-03    9.9999923E-25
 -1.5800000E-03    9.9999893E-25
 -1.5450000E-03    9.9999953E-25
 -1.5100000E-03    1.0000005E-24
 -1.4750001E-03    1.0000002E-24
 -1.4400000E-03    9.9999972E-25
 -1.4050000E-03    1.0000000E-24
 -1.3700000E-03    1.0000008E-24
 -1.3350000E-03    1.0000007E-24
 -1.3000000E-03    9.9999992E-25
 -1.2650000E-03    1.0000000E-24
 -1.2300001E-03    1.0000003E-24
 -1.1950000E-03    1.0000000E-24
 -1.1600000E-03    9.9999953E-25
 -1.1250000E-03    9.9999943E-25
 -1.0900000E-03    1.0000005E-24
 -1.0550000E-03    1.0000011E-24
 -1.0200000E-03    9.9999992E-25
 -9.8500005E-04    9.9999953E-25
 -9.5000002E-04    1.0000005E-24
 -9.1499998E-04    1.0000005E-24
 -8.8000001E-04    1.0000000E-24
 -8.4499997E-04    9.9999972E-25
 -8.1000000E-04    9.9999972E-25
 -7.7500002E-04    1.0000001E-24
 -7.3999999E-04    1.0000003E-24
 -7.0500001E-04    9.9999943E-25
 -6.6999998E-04    9.9999972E-25
 -6.3500000E-04    1.0000007E-24
 -6.0000003E-04    1.0000001E-24
 -5.6499999E-04    9.9999923E-25
 -5.3000002E-04    1.0000006E-24
 -4.9499999E-04    1.0000015E-24
 -4.6000001E-04    9.9999992E-25
 -4.2500001E-04    9.9999933E-25
 -3.9000000E-04    1.0000002E-24
 -3.5500000E-04    1.0000002E-24
 -3.1999999E-04    1.0000001E-24
 -2.8499999E-04    9.9999982E-25
 -2.5000001E-04    9.9999992E-25
 -2.1499999E-04    1.0000000E-24
 -1.8000000E-04    9.9999913E-25
 -1.4500000E-04    9.9999903E-25
 -1.1000000E-04    1.0000000E-24
 -7.5000004E-05    1.0000007E-24
 -3.9999999E-05    1.0000015E-24
 -4.9999999E-06    1.0000012E-24
  2.9999999E-05    1.0000003E-24
  6.5000000E-05    9.9999953E-25
  9.9999997E-05    9.9999933E-25
  1.3499999E-04    9.9999893E-25
  1.7000000E-04    9.9999913E-25
  2.0500000E-04    1.0000003E-24
  2.3999999E-04    1.0000006E-24
  2.7500000E-04    1.0000008E-24
  3.1000000E-04    1.0000011E-24
  3.4500001E-04    1.0000006E-24
  3.8000001E-04    9.9999972E-25
  4.1499999E-04    9.9999943E-25
  4.4999999E-04    9.9999963E-25
  4.8500000E-04    9.9999982E-25
  5.2000000E-04    1.0000002E-24
  5.5499998E-04    1.0000009E-24
  5.9000001E-04    1.0000007E-24
  6.2499999E-04    1.0000003E-24
  6.6000002E-04    9.9999972E-25
  6.9500000E-04    9.9999893E-25
  7.3000003E-04    9.9999972E-25
  7.6500000E-04    1.0000005E-24
  7.9999998E-04    9.9999953E-25
  8.3500001E-04    1.0000002E-24
  8.6999999E-04    1.0000016E-24
  9.0500002E-04    1.0000006E-24
  9.4000000E-04    9.9999854E-25
  9.7499997E-04    9.9999923E-25
  1.0100000E-03    1.0000006E-24
  1.0450000E-03    9.9999923E-25
  1.0800000E-03    9.9999953E-25
  1.1150000E-03    1.0000023E-24
  1.1500000E-03    1.0000011E-24
  1.1849999E-03    9.9999884E-25
  1.2200000E-03    1.0000007E-24
  1.2550000E-03    1.0000011E-24
  1.2900000E-03    9.9999844E-25
  1.3250000E-03    9.9999923E-25
  1.3600000E-03    1.0000019E-24
  1.3950000E-03    1.0000002E-24
  1.4299999E-03    9.9999795E-25
  1.4650000E-03    1.0000000E-24
  1.5000000E-03    1.0000014E-24
  1.5350000E-03    9.9999913E-25
  1.5700000E-03    9.9999972E-25
  1.6050000E-03    1.0000023E-24
  1.6400000E-03    1.0000010E-24
  1.6749999E-03    9.9999844E-25
  1.7100000E-03    1.0000000E-24
  1.7450000E-03    1.0000022E-24
  1.7800000E-03    9.9999982E-25
  1.8150000E-03    9.9999805E-25
  1.8500000E-03    1.0000006E-24
  1.8850000E-03    1.0000012E-24
  1.9200000E-03    9.9999953E-25
  1.9550000E-03    1.0000006E-24
  1.9900000E-03    1.0000015E-24
  2.0250001E-03    9.9999923E-25
  2.0600001E-03    9.9999864E-25
  2.0949999E-03    1.0000002E-24
  2.1299999E-03    9.9999854E-25
  2.1650000E-03    9.9999824E-25
  2.2000000E-03    1.0000027E-24
  2.2350000E-03    1.0000028E-24
  2.2700001E-03    9.9999864E-25
  2.3050001E-03    9.9999963E-25
  2.3399999E-03    1.0000017E-24
  2.3749999E-03    9.9999854E-25
  2.4100000E-03    9.9999716E-25
  2.4450000E-03    1.0000014E-24
  2.4800000E-03    1.0000023E-24
  2.5150001E-03    9.9999963E-25
  2.5500001E-03    1.0000002E-24
  2.5849999E-03    1.0000007E-24
  2.6199999E-03    9.9999834E-25
  2.6550000E-03    9.9999844E-25
  2.6900000E-03    1.0000005E-24
  2.7250000E-03    1.0000005E-24
  2.7600001E-03    1.0000005E-24
  2.7950001E-03    1.0000020E-24
  2.8299999E-03    1.0000015E-24
  2.8649999E-03    9.9999923E-25
  2.9000000E-03    9.9999903E-25
  2.9350000E-03    9.9999992E-25
  2.9700000E-03    9.9999963E-25
  3.0050001E-03    9.9999963E-25
  3.0400001E-03    1.0000013E-24
  3.0749999E-03    1.0000011E-24
  3.1099999E-03    9.9999874E-25
  3.1450000E-03    9.9999874E-25
  3.1800000E-03    1.0000005E-24
  3.2150000E-03    1.0000003E-24
  3.2500001E-03    9.9999913E-25
  3.2850001E-03    1.0000005E-24
  3.3199999E-03    1.0000017E-24
  3.3549999E-03    1.0000004E-24
  3.3900000E-03    1.0000005E-24
  3.4250000E-03    1.0000019E-24
  3.4600000E-03    1.0000005E-24
  3.4950001E-03    9.9999893E-25
  3.5300001E-03    1.0000000E-24
  3.5649999E-03    1.0000002E-24
  3.5999999E-03    9.9999884E-25
  3.6350000E-03    9.9999963E-25
  3.6700000E-03    1.0000011E-24
  3.7050000E-03    1.0000003E-24
  3.7400001E-03    9.9999963E-25
  3.7750001E-03    1.0000007E-24
  3.8099999E-03    1.0000004E-24
  3.8449999E-03    9.9999913E-25
  3.8800000E-03    1.0000010E-24
  3.9149998E-03    1.0000033E-24
  3.9499998E-03    1.0000003E-24
  3.9849998E-03    9.9999765E-25
  4.0199999E-03    1.0000000E-24
  4.0549999E-03    1.0000006E-24
  4.0899999E-03    9.9999726E-25
  4.1250000E-03    9.9999943E-25
  4.1600000E-03    1.0000031E-24
  4.1950000E-03    9.9999972E-25
  4.2300001E-03    9.9999706E-25
  4.2650001E-03    1.0000014E-24
  4.3000001E-03    1.0000021E-24
  4.3350002E-03    9.9999755E-25
  4.3700002E-03    9.9999834E-25
  4.4049998E-03    1.0000029E-24
  4.4399998E-03    1.0000013E-24
  4.4749998E-03    9.9999854E-25
  4.5099999E-03    1.0000011E-24
  4.5449999E-03    1.0000018E-24
  4.5799999E-03    9.9999854E-25
  4.6150000E-03    9.9999884E-25
  4.6500000E-03    1.0000010E-24
  4.6850001E-03    9.9999972E-25
  4.7200001E-03    9.9999972E-25
  4.7550001E-03    1.0000015E-24
  4.7900002E-03    9.9999963E-25
  4.8250002E-03    9.9999746E-25
  4.8600002E-03    1.0000008E-24
  4.8949998E-03    1.0000019E-24
  4.9299998E-03    9.9999844E-25
  4.9649999E-03    9.9999953E-25
  4.9999999E-03    1.0000031E-24
  5.0349999E-03    1.0000000E-24
  5.0700000E-03    9.9999617E-25
  5.1050000E-03    1.0000002E-24
  5.1400000E-03    1.0000031E-24
  5.1750001E-03    9.9999913E-25
  5.2100001E-03    9.9999815E-25
  5.2450001E-03    1.0000017E-24
  5.2800002E-03    1.0000011E-24
  5.3150002E-03    9.9999775E-25
  5.3500002E-03    9.9999893E-25
  5.3849998E-03    1.0000017E-24
  5.4199998E-03    1.0000003E-24
  5.4549999E-03    9.9999893E-25
  5.4899999E-03    1.0000010E-24
  5.5249999E-03    1.0000012E-24
  5.5600000E-03    9.9999893E-25
  5.5950000E-03    9.9999963E-25
  5.6300000E-03    1.0000013E-24
  5.6650001E-03    9.9999992E-25
  5.7000001E-03    9.9999953E-25
  5.7350001E-03    1.0000012E-24
  5.7700002E-03    1.0000011E-24
  5.8050002E-03    9.9999943E-25
  5.8400002E-03    9.9999923E-25
  5.8749998E-03    1.0000000E-24
  5.9099998E-03    1.0000003E-24
  5.9449999E-03    1.0000001E-24
  5.9799999E-03    9.9999992E-25
  6.0149999E-03    1.0000005E-24
  6.0500000E-03    1.0000005E-24
  6.0850000E-03    9.9999893E-25
  6.1200000E-03    9.9999903E-25
  6.1550001E-03    1.0000004E-24
  6.1900001E-03    1.0000001E-24
  6.2250001E-03    9.9999972E-25
  6.2600002E-03    1.0000005E-24
  6.2950002E-03    1.0000000E-24
  6.3299998E-03    9.9999953E-25
  6.3649998E-03    1.0000008E-24
  6.3999998E-03    1.0000006E-24
  6.4349999E-03    9.9999874E-25
  6.4699999E-03    9.9999953E-25
  6.5049999E-03    1.0000008E-24
  6.5400000E-03    1.0000000E-24
  6.5750000E-03    1.0000004E-24
  6.6100000E-03    1.0000023E-24
  6.6450001E-03    1.0000016E-24
  6.6800001E-03    9.9999854E-25
  6.7150001E-03    9.9999765E-25
  6.7500002E-03    1.0000003E-24
  6.7850002E-03    1.0000011E-24
  6.8199998E-03    9.9999953E-25
  6.8549998E-03    1.0000011E-24
  6.8899998E-03    1.0000022E-24
  6.9249999E-03    9.9999893E-25
  6.9599999E-03    9.9999775E-25
  6.9949999E-03    9.9999992E-25
  7.0300000E-03    9.9999992E-25
  7.0650000E-03    1.0000001E-24
  7.1000000E-03    1.0000025E-24
  7.1350001E-03    1.0000011E-24
  7.1700001E-03    9.9999893E-25
  7.2050001E-03    1.0000011E-24
  7.2400002E-03    1.0000010E-24
  7.2750002E-03    9.9999785E-25
  7.3099998E-03    9.9999972E-25
  7.3449998E-03    1.0000030E-24
  7.3799998E-03    1.0000001E-24
  7.4149999E-03    9.9999775E-25
  7.4499999E-03    1.0000006E-24
  7.4850000E-03    1.0000012E-24
  7.5200000E-03    9.9999844E-25
  7.5550000E-03    9.9999775E-25
  7.5900001E-03    1.0000002E-24
  7.6250001E-03    1.0000025E-24
  7.6600001E-03    1.0000011E-24
  7.6950002E-03    9.9999854E-25
  7.7300002E-03    9.9999913E-25
  7.7650002E-03    1.0000021E-24
  7.7999998E-03    1.0000011E-24
  7.8349998E-03    9.9999765E-25
  7.8699999E-03    9.9999874E-25
  7.9049999E-03    1.0000021E-24
  7.9399999E-03    1.0000007E-24
  7.9750000E-03    9.9999834E-25
  8.0100000E-03    1.0000002E-24
  8.0450000E-03    1.0000018E-24
  8.0800001E-03    1.0000000E-24
  8.1150001E-03    9.9999903E-25
  8.1500001E-03    1.0000004E-24
  8.1850002E-03    1.0000003E-24
  8.2200002E-03    9.9999903E-25
  8.2550002E-03    9.9999982E-25
  8.2900003E-03    1.0000004E-24
  8.3250003E-03    1.0000001E-24
  8.3600003E-03    1.0000007E-24
  8.3950004E-03    1.0000006E-24
  8.4300004E-03    9.9999963E-25
  8.4650004E-03    1.0000003E-24
  8.5000005E-03    1.0000006E-24
  8.5349996E-03    9.9999824E-25
  8.5699996E-03    9.9999795E-25
  8.6049996E-03    1.0000020E-24
  8.6399997E-03    1.0000026E-24
  8.6749997E-03    9.9999953E-25
  8.7099997E-03    9.9999953E-25
  8.7449998E-03    1.0000015E-24
  8.7799998E-03    9.9999943E-25
  8.8149998E-03    9.9999716E-25
  8.8499999E-03    1.0000000E-24
  8.8849999E-03    1.0000019E-24
  8.9199999E-03    9.9999903E-25
  8.9550000E-03    9.9999903E-25
  8.9900000E-03    1.0000032E-24
  9.0250000E-03    1.0000019E-24
  9.0600001E-03    9.9999854E-25
  9.0950001E-03    1.0000009E-24
  9.1300001E-03    1.0000013E-24
  9.1650002E-03    9.9999686E-25
  9.2000002E-03    9.9999854E-25
  9.2350002E-03    1.0000025E-24
  9.2700003E-03    9.9999884E-25
  9.3050003E-03    9.9999775E-25
  9.3400003E-03    1.0000020E-24
  9.3750004E-03    1.0000005E-24
  9.4100004E-03    9.9999805E-25
  9.4450004E-03    1.0000024E-24
  9.4799995E-03    1.0000032E-24
  9.5149996E-03    9.9999785E-25
  9.5499996E-03    9.9999854E-25
  9.5849996E-03    1.0000021E-24
  9.6199997E-03    9.9999972E-25
  9.6549997E-03    9.9999864E-25
  9.6899997E-03    1.0000032E-24
  9.7249998E-03    1.0000019E-24
  9.7599998E-03    9.9999696E-25
  9.7949998E-03    9.9999923E-25
  9.8299999E-03    1.0000022E-24
  9.8649999E-03    9.9999874E-25
  9.8999999E-03    9.9999746E-25
  9.9350000E-03    1.0000014E-24
  9.9700000E-03    1.0000019E-24
  1.0005000E-02    9.9999943E-25
  1.0040000E-02    9.9999963E-25
  1.0075000E-02    1.0000013E-24
  1.0110000E-02    1.0000010E-24
  1.0145000E-02    9.9999992E-25
  1.0180000E-02    9.9999992E-25
  1.0215000E-02    9.9999972E-25
  1.0250000E-02    9.9999913E-25
  1.0285000E-02    1.0000002E-24
  1.0320000E-02    1.0000014E-24
  1.0355000E-02    1.0000005E-24
  1.0390000E-02    1.0000006E-24
  1.0425000E-02    1.0000019E-24
  1.0460000E-02    9.9999943E-25
  1.0495000E-02    9.9999686E-25
  1.0530000E-02    9.9999972E-25
  1.0565000E-02    1.0000017E-24
  1.0600000E-02    9.9999874E-25
  1.0635000E-02    9.9999982E-25
  1.0670000E-02    1.0000032E-24
  1.0705000E-02    1.0000007E-24
  1.0740000E-02    9.9999805E-25
  1.0775000E-02    1.0000003E-24
  1.0810000E-02    1.0000011E-24
  1.0845000E-02    9.9999854E-25
  1.0880000E-02    9.9999923E-25
  1.0915000E-02    1.0000019E-24
  1.0950000E-02    1.0000013E-24
  1.0985000E-02    1.0000000E-24
  1.1020000E-02    1.0000004E-24
  1.1055000E-02    9.9999834E-25
  1.1090000E-02    9.9999726E-25
  1.1125000E-02    1.0000010E-24
  1.1160000E-02    1.0000023E-24
  1.1195000E-02    9.9999893E-25
  1.1230000E-02    9.9999982E-25
  1.1265000E-02    1.0000043E-24
  1.1300000E-02    1.0000029E-24
  1.1335000E-02    9.9999765E-25
  1.1370000E-02    9.9999686E-25
  1.1405000E-02    1.0000004E-24
  1.1440000E-02    1.0000028E-24
  1.1475000E-02    1.0000003E-24
  1.1510000E-02    9.9999440E-25
  1.1545000E-02    9.9999716E-25
  1.1580000E-02    1.0000104E-24
  1.1615000E-02    1.0000087E-24
  1.1650000E-02    9.9998493E-25
  1.1685000E-02    9.9998197E-25
  1.1720000E-02    1.0000174E-24
  1.1755000E-02    1.0000312E-24
  1.1790000E-02    9.9998247E-25
  1.1825000E-02    9.9994835E-25
  1.1860000E-02    1.0000123E-24
  1.1895000E-02    1.0000832E-24
  1.1930000E-02    1.0000057E-24
  1.1965000E-02    9.9987360E-25
  1.2000000E-02    9.9995279E-25
  1.2035000E-02    1.0001772E-24
  1.2070000E-02    1.0001249E-24
  1.2105000E-02    9.9977007E-25
  1.2140000E-02    9.9974374E-25
  1.2175000E-02    1.0002741E-24
  1.2210000E-02    1.0004725E-24
  1.2245000E-02    9.9972688E-25
  1.2280000E-02    9.9920130E-25
  1.2315000E-02    1.0001716E-24
  1.2350000E-02    1.0012557E-24
  1.2385000E-02    1.0001202E-24
  1.2420000E-02    9.9815221E-25
  1.2455000E-02    9.9926263E-25
  1.2490000E-02    1.0025407E-24
  1.2525000E-02    1.0018755E-24
  1.2560000E-02    9.9678324E-25
  1.2595000E-02    9.9621861E-25
  1.2630000E-02    1.0036258E-24
  1.2665000E-02    1.0067408E-24
  1.2700000E-02    9.9669735E-25
  1.2735000E-02    9.8897993E-25
  1.2770000E-02    1.0014773E-24
  1.2805000E-02    1.0167602E-24
  1.2840000E-02    1.0030275E-24
  1.2875000E-02    9.7621764E-25
  1.2910000E-02    9.8812046E-25
  1.2945000E-02    1.0312747E-24
  1.2980000E-02    1.0272473E-24
  1.3015000E-02    9.6266659E-25
  1.3050000E-02    9.4834590E-25
  1.3085000E-02    1.0383561E-24
  1.3120000E-02    1.0875776E-24
  1.3155000E-02    9.7172093E-25
  1.3190000E-02    8.6342285E-25
  1.3225000E-02    9.9780521E-25
  1.3260000E-02    1.1977975E-24
  1.3295000E-02    1.0662084E-24
  1.3330000E-02    7.3441649E-25
  1.3365000E-02    8.1921169E-25
  1.3400000E-02    1.3260613E-24
  1.3435000E-02    1.3657174E-24
  1.3470000E-02    6.4736978E-25
  1.3505000E-02    3.5965300E-25
  1.3540000E-02    1.3006339E-24
  1.3575000E-02    2.0171722E-24
  1.3610000E-02    8.9794982E-25
  1.3645000E-02   -4.9082921E-25
  1.3680000E-02    6.6181377E-25
  1.3715000E-02    3.0212043E-24
  1.3750000E-02    2.1414485E-24
  1.3785000E-02   -1.5097757E-24
  1.3820000E-02   -1.4459669E-24
  1.3855000E-02    3.7695411E-24
  1.3890000E-02    5.3828508E-24
  1.3925000E-02   -1.4911968E-24
  1.3960000E-02   -6.0302930E-24
  1.3995000E-02    2.2119648E-24
  1.4030000E-02    1.1338177E-23
  1.4065000E-02    2.7012579E-24
  1.4100000E-02   -1.3016483E-23
  1.4135000E-02   -6.0354399E-24
  1.4170000E-02    1.8385378E-23
  1.4205000E-02    1.6654591E-23
  1.4240000E-02   -1.8193567E-23
  1.4275000E-02   -2.7327536E-23
  1.4310000E-02    1.8428354E-23
  1.4345000E-02    4.6419949E-23
  1.4380000E-02   -8.1626743E-24
  1.4415000E-02   -6.5413022E-23
  1.4450000E-02   -8.4819129E-24
  1.4485000E-02    9.0223801E-23
  1.4520000E-02    4.4140005E-23
  1.4555000E-02   -1.0833867E-22
  1.4590000E-02   -9.5618619E-23
  1.4625000E-02    1.1983495E-22
  1.4660000E-02    1.7473703E-22
  1.4695000E-02   -1.0445785E-22
  1.4730000E-02   -2.7440215E-22
  1.4765000E-02    5.3060810E-23
  1.4800000E-02    3.9776550E-22
  1.4835000E-02    6.4115825E-23
  1.4870000E-02   -5.2245180E-22
  1.4905000E-02   -2.6368836E-22
  1.4940000E-02    6.2805213E-22
  1.4975000E-02    5.7707384E-22
  1.5010000E-02   -6.5951453E-22
  1.5045000E-02   -1.0112927E-21
  1.5080000E-02    5.5551439E-22
  1.5115000E-02    1.5698844E-21
  1.5150000E-02   -2.1567927E-22
  1.5185000E-02   -2.2056286E-21
  1.5220000E-02   -4.6284188E-22
  1.5255000E-02    2.8336374E-21
  1.5290000E-02    1.6042203E-21
  1.5325000E-02   -3.2787981E-21
  1.5360000E-02   -3.2965763E-21
  1.5395000E-02    3.2896068E-21
  1.5430000E-02    5.5832369E-21
  1.5465000E-02   -2.4969897E-21
  1.5500000E-02   -8.3728126E-21
  1.5535000E-02    4.5559794E-22
  1.5570000E-02    1.1397256E-20
  1.5605000E-02    3.3480622E-21
  1.5640000E-02   -1.4096434E-20
  1.5675001E-02   -9.3791659E-21
  1.5710000E-02    1.5570714E-20
  1.5745001E-02    1.7944535E-20
  1.5780000E-02   -1.4496954E-20
  1.5814999E-02   -2.8952856E-20
  1.5850000E-02    9.1697462E-21
  1.5884999E-02    4.1675527E-20
  1.5920000E-02    2.4165742E-21
  1.5954999E-02   -5.4399779E-20
  1.5990000E-02   -2.2266959E-20
  1.6024999E-02    6.4147146E-20
  1.6060000E-02    5.1945207E-20
  1.6094999E-02   -6.6408115E-20
  1.6130000E-02   -9.1834218E-20
  1.6164999E-02    5.5136344E-20
  1.6200000E-02    1.4022699E-19
  1.6235000E-02   -2.3021341E-20
  1.6270000E-02   -1.9217904E-19
  1.6305000E-02   -3.7654725E-20
  1.6340001E-02    2.3839958E-19
  1.6375000E-02    1.3354637E-19
  1.6410001E-02   -2.6430455E-19
  1.6445000E-02   -2.6790733E-19
  1.6480001E-02    2.4973906E-19
  1.6515000E-02    4.3751594E-19
  1.6550001E-02   -1.6972694E-19
  1.6585000E-02   -6.2891959E-19
  1.6620001E-02   -3.0730675E-21
  1.6655000E-02    8.1457707E-19
  1.6690001E-02    2.9376942E-19
  1.6725000E-02   -9.4958711E-19
  1.6759999E-02   -7.1802048E-19
  1.6795000E-02    9.7029444E-19
  1.6829999E-02    1.2722771E-18
  1.6865000E-02   -7.9618858E-19
  1.6899999E-02   -1.9219616E-18
  1.6935000E-02    3.3691286E-19
  1.6969999E-02    2.5890218E-18
  1.7005000E-02    4.9404127E-19
  1.7039999E-02   -3.1413199E-18
  1.7075000E-02   -1.7577379E-18
  1.7109999E-02    3.3874053E-18
  1.7145000E-02    3.4603411E-18
  1.7180000E-02   -3.0811994E-18
  1.7215000E-02   -5.5174477E-18
  1.7250000E-02    1.9416861E-18
  1.7285001E-02    7.7164809E-18
  1.7320000E-02    3.0763160E-19
  1.7355001E-02   -9.6843072E-18
  1.7390000E-02   -3.8763363E-18
  1.7425001E-02    1.0870551E-17
  1.7460000E-02    8.8220731E-18
  1.7495001E-02   -1.0559253E-17
  1.7530000E-02   -1.4947847E-17
  1.7565001E-02    7.9235317E-18
  1.7600000E-02    2.1694185E-17
  1.7635001E-02   -2.1357400E-18
  1.7670000E-02   -2.8047018E-17
  1.7704999E-02   -7.4587041E-18
  1.7740000E-02    3.2489295E-17
  1.7774999E-02    2.1105518E-17
  1.7810000E-02   -3.3032720E-17
  1.7844999E-02   -3.8359469E-17
  1.7880000E-02    2.7366528E-17
  1.7914999E-02    5.7791384E-17
  1.7950000E-02   -1.3156601E-17
  1.7984999E-02   -7.6740900E-17
  1.8020000E-02   -1.1487390E-17
  1.8054999E-02    9.1191620E-17
  1.8090000E-02    4.7384929E-17
  1.8124999E-02   -9.5861240E-17
  1.8160000E-02   -9.3543857E-17
  1.8195000E-02    8.4601671E-17
  1.8230001E-02    1.4640553E-16
  1.8265000E-02   -5.1186469E-17
  1.8300001E-02   -1.9922143E-16
  1.8335000E-02   -9.4779000E-18
  1.8370001E-02    2.4176181E-16
  1.8405000E-02    9.9751285E-17
  1.8440001E-02   -2.6058535E-16
  1.8475000E-02   -2.1740760E-16
  1.8510001E-02    2.4009247E-16
  1.8545000E-02    3.5378330E-16
  1.8580001E-02   -1.6453596E-16
  1.8615000E-02   -4.9230783E-16
  1.8650001E-02    2.1044272E-17
  1.8685000E-02    6.0790120E-16
  1.8719999E-02    1.9646699E-16
  1.8755000E-02   -6.6777579E-16
  1.8789999E-02   -4.8286262E-16
  1.8825000E-02    6.3415017E-16
  1.8859999E-02    8.1749648E-16
  1.8895000E-02   -4.6920633E-16
  1.8929999E-02   -1.1609696E-15
  1.8965000E-02    1.4235686E-16
  1.8999999E-02    1.4540856E-15
  1.9035000E-02    3.6061485E-16
  1.9069999E-02   -1.6201679E-15
  1.9105000E-02   -1.0274587E-15
  1.9140000E-02    1.5718362E-15
  1.9175000E-02    1.8100455E-15
  1.9210000E-02   -1.2228038E-15
  1.9245001E-02   -2.6177197E-15
  1.9280000E-02    5.0461294E-16
  1.9315001E-02    3.3159900E-15
  1.9350000E-02    6.1291934E-16
  1.9385001E-02   -3.7329712E-15
  1.9420000E-02   -2.0998438E-15
  1.9455001E-02    3.6756931E-15
  1.9490000E-02    3.8466214E-15
  1.9525001E-02   -2.9570689E-15
  1.9560000E-02   -5.6516169E-15
  1.9595001E-02    1.4328902E-15
  1.9630000E-02    7.2209923E-15
  1.9664999E-02    9.5464933E-16
  1.9700000E-02   -8.1855612E-15
  1.9734999E-02   -4.1320457E-15
  1.9770000E-02    8.1385619E-15
  1.9804999E-02    7.8567168E-15
  1.9840000E-02   -6.6948231E-15
  1.9874999E-02   -1.1695847E-14
  1.9910000E-02    3.5686112E-15
  1.9944999E-02    1.5032588E-14
  1.9980000E-02    1.3378210E-15
  2.0014999E-02   -1.7107787E-14
  2.0050000E-02   -7.8470352E-15
  2.0085000E-02    1.7103735E-14
  2.0120000E-02    1.5438221E-14
  2.0155000E-02   -1.4267972E-14
  2.0190001E-02   -2.3216412E-14
  2.0225000E-02    8.0700124E-15
  2.0260001E-02    2.9938796E-14
  2.0295000E-02    1.6282665E-15
  2.0330001E-02   -3.4112490E-14
  2.0365000E-02   -1.4412593E-14
  2.0400001E-02    3.4171044E-14
  2.0435000E-02    2.9202857E-14
  2.0470001E-02   -2.8722223E-14
  2.0505000E-02   -4.4219277E-14
  2.0540001E-02    1.6847448E-14
  2.0575000E-02    5.7062455E-14
  2.0609999E-02    1.5863086E-15
  2.0645000E-02   -6.4927583E-14
  2.0679999E-02   -2.5653086E-14
  2.0715000E-02    6.4959404E-14
  2.0749999E-02    5.3196491E-14
  2.0785000E-02   -5.4723902E-14
  2.0819999E-02   -8.0819025E-14
  2.0855000E-02    3.2752626E-14
  2.0889999E-02    1.0408692E-13
  2.0925000E-02    9.2104743E-16
  2.0959999E-02   -1.1797327E-13
  2.0995000E-02   -4.4324807E-14
  2.1029999E-02    1.1753580E-13
  2.1065000E-02    9.3324139E-14
  2.1100000E-02   -9.8771360E-14
  2.1135001E-02   -1.4170521E-13
  2.1170000E-02    5.9549933E-14
  2.1205001E-02    1.8163928E-13
  2.1240000E-02   -4.8339837E-16
  2.1275001E-02   -2.0454852E-13
  2.1310000E-02   -7.4437696E-14
  2.1345001E-02    2.0233511E-13
  2.1380000E-02    1.5761914E-13
  2.1415001E-02   -1.6884668E-13
  2.1450000E-02   -2.3819117E-13
  2.1485001E-02    1.0138879E-13
  2.1520000E-02    3.0297059E-13
  2.1555001E-02   -2.0354483E-15
  2.1590000E-02   -3.3806752E-13
  2.1624999E-02   -1.2155232E-13
  2.1660000E-02    3.3098215E-13
  2.1694999E-02    2.5604239E-13
  2.1730000E-02   -2.7298931E-13
  2.1764999E-02   -3.8329336E-13
  2.1800000E-02    1.6142785E-13
  2.1834999E-02    4.8221599E-13
  2.1870000E-02   -1.5027528E-15
  2.1904999E-02   -5.3155212E-13
  2.1940000E-02   -1.9284094E-13
  2.1974999E-02    5.1328961E-13
  2.2010000E-02    3.9930480E-13
  2.2045000E-02   -4.1627598E-13
  2.2080000E-02   -5.8912153E-13
  2.2115000E-02    2.3941737E-13
  2.2150001E-02    7.3038467E-13
  2.2185000E-02    6.1108637E-15
  2.2220001E-02   -7.9260719E-13
  2.2255000E-02   -2.9631199E-13
  2.2290001E-02    7.5190234E-13
  2.2325000E-02    5.9582786E-13
  2.2360001E-02   -5.9606102E-13
  2.2395000E-02   -8.6156760E-13
  2.2430001E-02    3.2860252E-13
  2.2465000E-02    1.0482891E-12
  2.2500001E-02    2.9064004E-14
  2.2535000E-02   -1.1155394E-12
  2.2569999E-02   -4.3812553E-13
  2.2605000E-02    1.0349249E-12
  2.2639999E-02    8.4581246E-13
  2.2675000E-02   -7.9659288E-13
  2.2709999E-02   -1.1917717E-12
  2.2745000E-02    4.1357870E-13
  2.2779999E-02    1.4166510E-12
  2.2815000E-02    7.6972696E-14
  2.2849999E-02   -1.4718363E-12
  2.2885000E-02   -6.1654848E-13
  2.2919999E-02    1.3286930E-12
  2.2955000E-02    1.1319311E-12
  2.2990000E-02   -9.8570468E-13
  2.3025000E-02   -1.5452323E-12
  2.3060000E-02    4.7191011E-13
  2.3095001E-02    1.7859522E-12
  2.3130000E-02    1.5440410E-13
  2.3165001E-02   -1.8032048E-12
  2.3200000E-02   -8.1217493E-13
  2.3235001E-02    1.5758856E-12
  2.3270000E-02    1.4085796E-12
  2.3305001E-02   -1.1188121E-12
  2.3340000E-02   -1.8531606E-12
  2.3375001E-02    4.8322083E-13
  2.3410000E-02    2.0727914E-12
  2.3445001E-02    2.4898050E-13
  2.3480000E-02   -2.0248508E-12
  2.3514999E-02   -9.7672933E-13
  2.3550000E-02    1.7060278E-12
  2.3584999E-02    1.5954473E-12
  2.3620000E-02   -1.1548102E-12
  2.3654999E-02   -2.0142926E-12
  2.3690000E-02    4.4666151E-13
  2.3724999E-02    2.1717582E-12
  2.3760000E-02    3.1757333E-13
  2.3794999E-02   -2.0467174E-12
  2.3830000E-02   -1.0282927E-12
  2.3864999E-02    1.6624566E-12
  2.3900000E-02    1.5858136E-12
  2.3934999E-02   -1.0826527E-12
  2.3970000E-02   -1.9175152E-12
  2.4005000E-02    3.9976383E-13
  2.4040001E-02    1.9900442E-12
  2.4075000E-02    2.8202240E-13
  2.4110001E-02   -1.8139703E-12
  2.4145000E-02   -8.6605907E-13
  2.4180001E-02    1.4397960E-12
  2.4215000E-02    1.2805826E-12
  2.4250001E-02   -9.4611016E-13
  2.4285000E-02   -1.4906557E-12
  2.4320001E-02    4.2224378E-13
  2.4355000E-02    1.5018501E-12
  2.4390001E-02    5.0545783E-14
  2.4425000E-02   -1.3551666E-12
  2.4460001E-02   -4.1538924E-13
  2.4495000E-02    1.1140771E-12
  2.4529999E-02    6.4956580E-13
  2.4565000E-02   -8.4693895E-13
  2.4599999E-02   -7.6543394E-13
  2.4635000E-02    6.0918821E-13
  2.4669999E-02    8.0243711E-13
  2.4705000E-02   -4.2973817E-13
  2.4739999E-02   -8.1214928E-13
  2.4775000E-02    3.0509904E-13
  2.4809999E-02    8.4015217E-13
  2.4845000E-02   -2.0311607E-13
  2.4879999E-02   -9.0964454E-13
  2.4915000E-02    7.5687517E-14
  2.4950000E-02    1.0116645E-12
  2.4985000E-02    1.2278485E-13
  2.5020000E-02   -1.1052521E-12
  2.5055001E-02   -4.1653578E-13
  2.5090000E-02    1.1278138E-12
  2.5125001E-02    7.9421761E-13
  2.5160000E-02   -1.0138428E-12
  2.5195001E-02   -1.2039841E-12
  2.5230000E-02    7.1766199E-13
  2.5265001E-02    1.5606775E-12
  2.5300000E-02   -2.3410866E-13
  2.5335001E-02   -1.7652166E-12
  2.5370000E-02   -3.9028817E-13
  2.5405001E-02    1.7310095E-12
  2.5440000E-02    1.0592875E-12
  2.5474999E-02   -1.4111240E-12
  2.5510000E-02   -1.6431424E-12
  2.5544999E-02    8.1906953E-13
  2.5580000E-02    2.0065167E-12
  2.5614999E-02   -3.7446131E-14
  2.5650000E-02   -2.0441704E-12
  2.5684999E-02   -7.9209800E-13
  2.5720000E-02    1.7139635E-12
  2.5754999E-02    1.4975407E-12
  2.5790000E-02   -1.0562680E-12
  2.5824999E-02   -1.9163993E-12
  2.5860000E-02    1.9397381E-13
  2.5895000E-02    1.9370365E-12
  2.5930000E-02    6.8672894E-13
  2.5965000E-02   -1.5347557E-12
  2.6000001E-02   -1.3759003E-12
  2.6035000E-02    7.9139245E-13
  2.6070001E-02    1.6951631E-12
  2.6105000E-02    1.1510393E-13
  2.6140001E-02   -1.5505960E-12
  2.6175000E-02   -9.5147523E-13
  2.6210001E-02    9.6369906E-13
  2.6245000E-02    1.4845727E-12
  2.6280001E-02   -7.7270269E-14
  2.6315000E-02   -1.5415983E-12
  2.6350001E-02   -8.6432500E-13
  2.6385000E-02    1.0706972E-12
  2.6419999E-02    1.5719697E-12
  2.6455000E-02   -1.7804046E-13
  2.6489999E-02   -1.8006663E-12
  2.6525000E-02   -8.9009182E-13
  2.6559999E-02    1.4287985E-12
  2.6595000E-02    1.8106699E-12
  2.6629999E-02   -4.9913909E-13
  2.6665000E-02   -2.2597948E-12
  2.6699999E-02   -7.6675499E-13
  2.6735000E-02    2.0028812E-12
  2.6769999E-02    1.9890246E-12
  2.6805000E-02   -1.0026337E-12
  2.6839999E-02   -2.7292469E-12
  2.6875000E-02   -5.2238379E-13
  2.6910000E-02    2.6463035E-12
  2.6945001E-02    2.1488963E-12
  2.6980000E-02   -1.6093161E-12