 -4.8000002E-03    1.0000000E-24
 -4.7650002E-03    1.0000002E-24
 -4.7300002E-03    1.0000001E-24
 -4.6950001E-03    1.0000002E-24
 -4.6600001E-03    1.0000002E-24
 -4.6250001E-03    1.0000000E-24
 -4.5900000E-03    1.0000000E-24
 -4.5550000E-03    1.0000001E-24
 -4.5200000E-03    1.0000001E-24
 -4.4849999E-03    9.9999972E-25
 -4.4499999E-03    1.0000000E-24
 -4.4149999E-03    1.0000005E-24
 -4.3799998E-03    1.0000005E-24
 -4.3449998E-03    9.9999982E-25
 -4.3100002E-03    9.9999982E-25
 -4.2750002E-03    1.0000006E-24
 -4.2400002E-03    1.0000005E-24
 -4.2050001E-03    9.9999972E-25
 -4.1700001E-03    9.9999963E-25
 -4.1350001E-03    1.0000003E-24
 -4.1000000E-03    1.0000005E-24
 -4.0650000E-03    1.0000001E-24
 -4.0300000E-03    9.9999982E-25
 -3.9949999E-03    9.9999972E-25
 -3.9599999E-03    1.0000000E-24
 -3.9249999E-03    1.0000004E-24
 -3.8900001E-03    1.0000001E-24
 -3.8550000E-03    9.9999982E-25
 -3.8200000E-03    1.0000002E-24
 -3.7849999E-03    1.0000005E-24
 -3.7499999E-03    9.9999992E-25
 -3.7150001E-03    9.9999943E-25
 -3.6800001E-03    1.0000001E-24
 -3.6450000E-03    1.0000006E-24
 -3.6100000E-03    1.0000001E-24
 -3.5750000E-03    9.9999972E-25
 -3.5399999E-03    1.0000002E-24
 -3.5049999E-03    1.0000006E-24
 -3.4700001E-03    1.0000004E-24
 -3.4350001E-03    9.9999963E-25
 -3.4000000E-03    9.9999963E-25
 -3.3650000E-03    1.0000000E-24
 -3.3300000E-03    9.9999982E-25
 -3.2949999E-03    1.0000001E-24
 -3.2599999E-03    1.0000006E-24
 -3.2250001E-03    1.0000001E-24
 -3.1900001E-03    9.9999972E-25
 -3.1550000E-03    1.0000004E-24
 -3.1200000E-03    1.0000003E-24
 -3.0850000E-03    9.9999943E-25
 -3.0499999E-03    9.9999992E-25
 -3.0149999E-03    1.0000012E-24
 -2.9800001E-03    1.0000007E-24
 -2.9450001E-03    9.9999913E-25
 -2.9100000E-03    9.9999943E-25
 -2.8750000E-03    1.0000004E-24
 -2.8400000E-03    9.9999963E-25
 -2.8049999E-03    9.9999913E-25
 -2.7699999E-03    1.0000008E-24
 -2.7350001E-03    1.0000011E-24
 -2.7000001E-03    9.9999982E-25
 -2.6650000E-03    9.9999982E-25
 -2.6300000E-03    1.0000006E-24
 -2.5950000E-03    9.9999972E-25
 -2.5599999E-03    9.9999953E-25
 -2.5249999E-03    1.0000009E-24
 -2.4900001E-03    1.0000008E-24
 -2.4550001E-03    9.9999943E-25
 -2.4200000E-03    1.0000000E-24
 -2.3850000E-03    1.0000010E-24
 -2.3500000E-03    9.9999953E-25
 -2.3149999E-03    9.9999874E-25
 -2.2799999E-03    1.0000006E-24
 -2.2450001E-03    1.0000010E-24
 -2.2100001E-03    9.9999903E-25
 -2.1750000E-03    9.9999913E-25
 -2.1400000E-03    1.0000011E-24
 -2.1050000E-03    1.0000005E-24
 -2.0699999E-03    9.9999884E-25
 -2.0349999E-03    9.9999982E-25
 -2.0000001E-03    1.0000014E-24
 -1.9650001E-03    1.0000003E-24
 -1.9300000E-03    9.9999953E-25
 -1.8950000E-03    1.0000008E-24
 -1.8600000E-03    1.0000008E-24
 -1.8250000E-03    9.9999933E-25
 -1.7900000E-03    9.9999903E-25
 -1.7550000E-03    1.0000006E-24
 -1.7199999E-03    1.0000006E-24
 -1.6850000E-03    1.0000005E-24
 -1.6500000E-03    1.0000004E-24
 -1.6150000E-03    9.9999923E-25
 -1.5800000E-03    9.9999864E-25
 -1.5450000E-03    9.9999992E-25
 -1.5100000E-03    1.0000007E-24
 -1.4750001E-03    1.0000000E-24
 -1.4400000E-03    9.9999992E-25
 -1.4050000E-03    1.0000006E-24
 -1.3700000E-03    1.0000003E-24
 -1.3350000E-03    9.9999893E-25
 -1.3000000E-03    9.9999884E-25
 -1.2650000E-03    1.0000008E-24
 -1.2300001E-03    1.0000020E-24
 -1.1950000E-03    1.0000006E-24
 -1.1600000E-03    9.9999953E-25
 -1.1250000E-03    1.0000002E-24
 -1.0900000E-03    1.0000006E-24
 -1.0550000E-03    9.9999953E-25
 -1.0200000E-03    9.9999923E-25
 -9.8500005E-04    1.0000004E-24
 -9.5000002E-04    1.0000007E-24
 -9.1499998E-04    9.9999992E-25
 -8.8000001E-04    1.0000000E-24
 -8.4499997E-04    1.0000001E-24
 -8.1000000E-04    9.9999963E-25
 -7.7500002E-04    1.0000002E-24
 -7.3999999E-04    1.0000012E-24
 -7.0500001E-04    1.0000003E-24
 -6.6999998E-04    9.9999903E-25
 -6.3500000E-04    1.0000001E-24
 -6.0000003E-04    1.0000009E-24
 -5.6499999E-04    9.9999923E-25
 -5.3000002E-04    9.9999844E-25
 -4.9499999E-04    1.0000005E-24
 -4.6000001E-04    1.0000017E-24
 -4.2500001E-04    9.9999943E-25
 -3.9000000E-04    9.9999854E-25
 -3.5500000E-04    1.0000014E-24
 -3.1999999E-04    1.0000021E-24
 -2.8499999E-04    9.9999953E-25
 -2.5000001E-04    9.9999874E-25
 -2.1499999E-04    1.0000014E-24
 -1.8000000E-04    1.0000016E-24
 -1.4500000E-04    9.9999884E-25
 -1.1000000E-04    9.9999864E-25
 -7.5000004E-05    1.0000007E-24
 -3.9999999E-05    1.0000001E-24
 -4.9999999E-06    9.9999854E-25
  2.9999999E-05    9.9999982E-25
  6.5000000E-05    1.0000015E-24
  9.9999997E-05    1.0000003E-24
  1.3499999E-04    9.9999982E-25
  1.7000000E-04    1.0000014E-24
  2.0500000E-04    1.0000009E-24
  2.3999999E-04    9.9999884E-25
  2.7500000E-04    1.0000000E-24
  3.1000000E-04    1.0000015E-24
  3.4500001E-04    9.9999943E-25
  3.8000001E-04    9.9999834E-25
  4.1499999E-04    1.0000002E-24
  4.4999999E-04    1.0000008E-24
  4.8500000E-04    9.9999913E-25
  5.2000000E-04    9.9999854E-25
  5.5499998E-04    1.0000005E-24
  5.9000001E-04    1.0000017E-24
  6.2499999E-04    1.0000003E-24
  6.6000002E-04    9.9999913E-25
  6.9500000E-04    1.0000006E-24
  7.3000003E-04    1.0000013E-24
  7.6500000E-04    1.0000006E-24
  7.9999998E-04    1.0000001E-24
  8.3500001E-04    9.9999943E-25
  8.6999999E-04    9.9999972E-25
  9.0500002E-04    1.0000004E-24
  9.4000000E-04    9.9999972E-25
  9.7499997E-04    9.9999923E-25
  1.0100000E-03    1.0000004E-24
  1.0450000E-03    1.0000005E-24
  1.0800000E-03    9.9999972E-25
  1.1150000E-03    1.0000003E-24
  1.1500000E-03    1.0000000E-24
  1.1849999E-03    9.9999923E-25
  1.2200000E-03    1.0000006E-24
  1.2550000E-03    1.0000007E-24
  1.2900000E-03    9.9999864E-25
  1.3250000E-03    9.9999963E-25
  1.3600000E-03    1.0000018E-24
  1.3950000E-03    1.0000011E-24
  1.4299999E-03    9.9999943E-25
  1.4650000E-03    9.9999923E-25
  1.5000000E-03    1.0000002E-24
  1.5350000E-03    1.0000006E-24
  1.5700000E-03    1.0000001E-24
  1.6050000E-03    9.9999953E-25
  1.6400000E-03    1.0000000E-24
  1.6749999E-03    1.0000008E-24
  1.7100000E-03    9.9999972E-25
  1.7450000E-03    9.9999854E-25
  1.7800000E-03    9.9999963E-25
  1.8150000E-03    1.0000020E-24
  1.8500000E-03    1.0000015E-24
  1.8850000E-03    9.9999893E-25
  1.9200000E-03    9.9999913E-25
  1.9550000E-03    1.0000009E-24
  1.9900000E-03    1.0000003E-24
  2.0250001E-03    9.9999913E-25
  2.0600001E-03    1.0000001E-24
  2.0949999E-03    1.0000012E-24
  2.1299999E-03    1.0000010E-24
  2.1650000E-03    9.9999972E-25
  2.2000000E-03    9.9999884E-25
  2.2350000E-03    1.0000000E-24
  2.2700001E-03    1.0000005E-24
  2.3050001E-03    9.9999923E-25
  2.3399999E-03    9.9999972E-25
  2.3749999E-03    1.0000014E-24
  2.4100000E-03    1.0000012E-24
  2.4450000E-03    9.9999982E-25
  2.4800000E-03    9.9999933E-25
  2.5150001E-03    9.9999963E-25
  2.5500001E-03    9.9999972E-25
  2.5849999E-03    1.0000004E-24
  2.6199999E-03    1.0000003E-24
  2.6550000E-03    9.9999933E-25
  2.6900000E-03    9.9999992E-25
  2.7250000E-03    1.0000011E-24
  2.7600001E-03    1.0000010E-24
  2.7950001E-03    9.9999953E-25
  2.8299999E-03    9.9999933E-25
  2.8649999E-03    1.0000010E-24
  2.9000000E-03    1.0000014E-24
  2.9350000E-03    1.0000002E-24
  2.9700000E-03    9.9999933E-25
  3.0050001E-03    1.0000000E-24
  3.0400001E-03    1.0000007E-24
  3.0749999E-03    1.0000006E-24
  3.1099999E-03    9.9999953E-25
  3.1450000E-03    9.9999884E-25
  3.1800000E-03    1.0000002E-24
  3.2150000E-03    1.0000009E-24
  3.2500001E-03    9.9999923E-25
  3.2850001E-03    9.9999953E-25
  3.3199999E-03    1.0000017E-24
  3.3549999E-03    1.0000002E-24
  3.3900000E-03    9.9999755E-25
  3.4250000E-03    9.9999982E-25
  3.4600000E-03    1.0000025E-24
  3.4950001E-03    1.0000001E-24
  3.5300001E-03    9.9999943E-25
  3.5649999E-03    1.0000018E-24
  3.5999999E-03    1.0000000E-24
  3.6350000E-03    9.9999755E-25
  3.6700000E-03    9.9999992E-25
  3.7050000E-03    1.0000015E-24
  3.7400001E-03    9.9999953E-25
  3.7750001E-03    9.9999933E-25
  3.8099999E-03    1.0000005E-24
  3.8449999E-03    1.0000001E-24
  3.8800000E-03    9.9999963E-25
  3.9149998E-03    9.9999884E-25
  3.9499998E-03    9.9999864E-25
  3.9849998E-03    1.0000015E-24
  4.0199999E-03    1.0000029E-24
  4.0549999E-03    9.9999972E-25
  4.0899999E-03    9.9999854E-25
  4.1250000E-03    1.0000010E-24
  4.1600000E-03    1.0000010E-24
  4.1950000E-03    9.9999933E-25
  4.2300001E-03    9.9999972E-25
  4.2650001E-03    1.0000002E-24
  4.3000001E-03    9.9999963E-25
  4.3350002E-03    1.0000000E-24
  4.3700002E-03    1.0000011E-24
  4.4049998E-03    1.0000002E-24
  4.4399998E-03    9.9999815E-25
  4.4749998E-03    9.9999874E-25
  4.5099999E-03    1.0000019E-24
  4.5449999E-03    1.0000013E-24
  4.5799999E-03    9.9999716E-25
  4.6150000E-03    9.9999933E-25
  4.6500000E-03    1.0000049E-24
  4.6850001E-03    1.0000014E-24
  4.7200001E-03    9.9999608E-25
  4.7550001E-03    9.9999963E-25
  4.7900002E-03    1.0000037E-24
  4.8250002E-03    1.0000003E-24
  4.8600002E-03    9.9999746E-25
  4.8949998E-03    9.9999953E-25
  4.9299998E-03    1.0000002E-24
  4.9649999E-03    9.9999933E-25
  4.9999999E-03    1.0000012E-24
  5.0349999E-03    1.0000027E-24
  5.0700000E-03    1.0000003E-24
  5.1050000E-03    9.9999844E-25
  5.1400000E-03    1.0000007E-24
  5.1750001E-03    1.0000016E-24
  5.2100001E-03    9.9999834E-25
  5.2450001E-03    9.9999795E-25
  5.2800002E-03    1.0000025E-24
  5.3150002E-03    1.0000023E-24
  5.3500002E-03    9.9999795E-25
  5.3849998E-03    9.9999913E-25
  5.4199998E-03    1.0000029E-24
  5.4549999E-03    1.0000005E-24
  5.4899999E-03    9.9999736E-25
  5.5249999E-03    9.9999943E-25
  5.5600000E-03    1.0000019E-24
  5.5950000E-03    1.0000007E-24
  5.6300000E-03    9.9999874E-25
  5.6650001E-03    9.9999923E-25
  5.7000001E-03    1.0000006E-24
  5.7350001E-03    1.0000000E-24
  5.7700002E-03    9.9999903E-25
  5.8050002E-03    1.0000000E-24
  5.8400002E-03    1.0000013E-24
  5.8749998E-03    1.0000005E-24
  5.9099998E-03    1.0000000E-24
  5.9449999E-03    1.0000002E-24
  5.9799999E-03    9.9999903E-25
  6.0149999E-03    9.9999893E-25
  6.0500000E-03    1.0000017E-24
  6.0850000E-03    1.0000014E-24
  6.1200000E-03    9.9999805E-25
  6.1550001E-03    9.9999815E-25
  6.1900001E-03    1.0000008E-24
  6.2250001E-03    1.0000006E-24
  6.2600002E-03    9.9999923E-25
  6.2950002E-03    1.0000004E-24
  6.3299998E-03    1.0000012E-24
  6.3649998E-03    9.9999953E-25
  6.3999998E-03    9.9999903E-25
  6.4349999E-03    1.0000005E-24
  6.4699999E-03    1.0000006E-24
  6.5049999E-03    1.0000000E-24
  6.5400000E-03    1.0000011E-24
  6.5750000E-03    1.0000016E-24
  6.6100000E-03    9.9999963E-25
  6.6450001E-03    9.9999953E-25
  6.6800001E-03    1.0000010E-24
  6.7150001E-03    9.9999982E-25
  6.7500002E-03    9.9999815E-25
  6.7850002E-03    9.9999923E-25
  6.8199998E-03    1.0000009E-24
  6.8549998E-03    1.0000008E-24
  6.8899998E-03    1.0000000E-24
  6.9249999E-03    1.0000004E-24
  6.9599999E-03    1.0000010E-24
  6.9949999E-03    9.9999953E-25
  7.0300000E-03    9.9999824E-25
  7.0650000E-03    9.9999972E-25
  7.1000000E-03    1.0000019E-24
  7.1350001E-03    1.0000015E-24
  7.1700001E-03    9.9999972E-25
  7.2050001E-03    9.9999982E-25
  7.2400002E-03    1.0000009E-24
  7.2750002E-03    9.9999992E-25
  7.3099998E-03    9.9999874E-25
  7.3449998E-03    9.9999963E-25
  7.3799998E-03    1.0000013E-24
  7.4149999E-03    1.0000015E-24
  7.4499999E-03    1.0000014E-24
  7.4850000E-03    1.0000016E-24
  7.5200000E-03    9.9999893E-25
  7.5550000E-03    9.9999686E-25
  7.5900001E-03    9.9999953E-25
  7.6250001E-03    1.0000023E-24
  7.6600001E-03    1.0000002E-24
  7.6950002E-03    9.9999893E-25
  7.7300002E-03    1.0000017E-24
  7.7650002E-03    1.0000024E-24
  7.7999998E-03    9.9999893E-25
  7.8349998E-03    9.9999726E-25
  7.8699999E-03    1.0000002E-24
  7.9049999E-03    1.0000022E-24
  7.9399999E-03    9.9999972E-25
  7.9750000E-03    9.9999844E-25
  8.0100000E-03    1.0000011E-24
  8.0450000E-03    1.0000013E-24
  8.0800001E-03    9.9999913E-25
  8.1150001E-03    9.9999972E-25
  8.1500001E-03    1.0000009E-24
  8.1850002E-03    1.0000002E-24
  8.2200002E-03    1.0000000E-24
  8.2550002E-03    1.0000003E-24
  8.2900003E-03    1.0000000E-24
  8.3250003E-03    1.0000009E-24
  8.3600003E-03    1.0000010E-24
  8.3950004E-03    9.9999943E-25
  8.4300004E-03    9.9999903E-25
  8.4650004E-03    1.0000001E-24
  8.5000005E-03    1.0000001E-24
  8.5349996E-03    9.9999992E-25
  8.5699996E-03    9.9999953E-25
  8.6049996E-03    9.9999903E-25
  8.6399997E-03    9.9999992E-25
  8.6749997E-03    1.0000006E-24
  8.7099997E-03    9.9999943E-25
  8.7449998E-03    9.9999893E-25
  8.7799998E-03    1.0000001E-24
  8.8149998E-03    1.0000004E-24
  8.8499999E-03    1.0000011E-24
  8.8849999E-03    1.0000031E-24
  8.9199999E-03    1.0000011E-24
  8.9550000E-03    9.9999884E-25
  8.9900000E-03    1.0000023E-24
  9.0250000E-03    9.9999943E-25
  9.0600001E-03    9.9999489E-25
  9.0950001E-03    1.0000012E-24
  9.1300001E-03    1.0000094E-24
  9.1650002E-03    1.0000035E-24
  9.2000002E-03    9.9998612E-25
  9.2350002E-03    9.9999124E-25
  9.2700003E-03    1.0000165E-24
  9.3050003E-03    1.0000084E-24
  9.3400003E-03    9.9998010E-25
  9.3750004E-03    9.9998740E-25
  9.4100004E-03    1.0000302E-24
  9.4450004E-03    1.0000033E-24
  9.4799995E-03    9.9994677E-25
  9.5149996E-03    9.9992754E-25
  9.5499996E-03    1.0000223E-24
  9.5849996E-03    1.0000899E-24
  9.6199997E-03    1.0000028E-24
  9.6549997E-03    9.9983860E-25
  9.6899997E-03    9.9998227E-25
  9.7249998E-03    1.0002237E-24
  9.7599998E-03    1.0002289E-24
  9.7949998E-03    9.9978584E-25
  9.8299999E-03    9.9964099E-25
  9.8649999E-03    1.0005067E-24
  9.8999999E-03    1.0009010E-24
  9.9350000E-03    9.9914687E-25
  9.9700000E-03    9.9903475E-25
  1.0005000E-02    1.0001136E-24
  1.0040000E-02    1.0012861E-24
  1.0075000E-02    1.0001464E-24
  1.0110000E-02    9.9914174E-25
  1.0145000E-02    1.0001123E-24
  1.0180000E-02    1.0012902E-24
  1.0215000E-02    1.0004350E-24
  1.0250000E-02    9.9827271E-25
  1.0285000E-02    9.9638082E-25
  1.0320000E-02    1.0011899E-24
  1.0355000E-02    1.0089839E-24
  1.0390000E-02    1.0024969E-24
  1.0425000E-02    9.9003976E-25
  1.0460000E-02    1.0059682E-24
  1.0495000E-02    1.0189401E-24
  1.0530000E-02    1.0022078E-24
  1.0565000E-02    9.8389661E-25
  1.0600000E-02    9.8147954E-25
  1.0635000E-02    1.0213908E-24
  1.0670000E-02    1.0324479E-24
  1.0705000E-02    9.8544001E-25
  1.0740000E-02    9.5814198E-25
  1.0775000E-02    1.0006031E-24
  1.0810000E-02    1.0416405E-24
  1.0845000E-02    1.0413461E-24
  1.0880000E-02    9.0852627E-25
  1.0915000E-02    9.1369519E-25
  1.0950000E-02    1.0896258E-24
  1.0985000E-02    1.1693086E-24
  1.1020000E-02    9.2791509E-25
  1.1055000E-02    7.5450616E-25
  1.1090000E-02    1.0754485E-24
  1.1125000E-02    1.3524127E-24
  1.1160000E-02    1.0304670E-24
  1.1195000E-02    4.8978377E-25
  1.1230000E-02    6.7760346E-25
  1.1265000E-02    1.5553966E-24
  1.1300000E-02    2.0027656E-24
  1.1335000E-02    1.2090944E-24
  1.1370000E-02   -4.5818124E-27
  1.1405000E-02    7.3628303E-25
  1.1440000E-02    2.8579508E-24
  1.1475000E-02    1.5579444E-24
  1.1510000E-02   -7.9505894E-25
  1.1545000E-02   -5.0770787E-25
  1.1580000E-02    3.5035967E-24
  1.1615000E-02    3.6618923E-24
  1.1650000E-02   -1.0255153E-24
  1.1685000E-02   -4.0225382E-24
  1.1720000E-02    2.8008100E-24
  1.1755000E-02    9.7960179E-24
  1.1790000E-02    3.5490008E-24
  1.1825000E-02   -9.4187720E-24
  1.1860000E-02   -4.6552165E-24
  1.1895000E-02    1.6097106E-23
  1.1930000E-02    1.1579660E-23
  1.1965000E-02   -1.7465251E-23
  1.2000000E-02   -2.0758815E-23
  1.2035000E-02    1.0089368E-23
  1.2070000E-02    2.8030938E-23
  1.2105000E-02    4.3881895E-24
  1.2140000E-02   -4.9380768E-23
  1.2175000E-02   -2.6279369E-23
  1.2210000E-02    7.1902160E-23
  1.2245000E-02    7.3177880E-23
  1.2280000E-02   -5.2911835E-23
  1.2315000E-02   -1.1349699E-22
  1.2350000E-02    5.9244218E-23
  1.2385000E-02    1.8785318E-22
  1.2420000E-02   -2.4936673E-23
  1.2455000E-02   -2.1710492E-22
  1.2490000E-02   -5.8937994E-23
  1.2525000E-02    2.7466703E-22
  1.2560000E-02    2.0047943E-22
  1.2595000E-02   -2.2456187E-22
  1.2630000E-02   -3.2054140E-22
  1.2665000E-02    3.0544217E-22
  1.2700000E-02    6.1582425E-22
  1.2735000E-02   -1.1185003E-22
  1.2770000E-02   -8.2445587E-22
  1.2805000E-02   -7.6965258E-23
  1.2840000E-02    1.1638966E-21
  1.2875000E-02    6.8108574E-22
  1.2910000E-02   -1.2687853E-21
  1.2945000E-02   -1.3604015E-21
  1.2980000E-02    1.1439520E-21
  1.3015000E-02    2.2324825E-21
  1.3050000E-02   -5.7115736E-22
  1.3085000E-02   -3.2444172E-21
  1.3120000E-02   -3.7192333E-22
  1.3155000E-02    4.3549415E-21
  1.3190000E-02    1.9291484E-21
  1.3225000E-02   -5.6896548E-21
  1.3260000E-02   -4.8114891E-21
  1.3295000E-02    5.1157033E-21
  1.3330000E-02    7.8366243E-21
  1.3365000E-02   -3.7785053E-21
  1.3400000E-02   -1.2124252E-20
  1.3435000E-02   -5.2704441E-23
  1.3470000E-02    1.6221362E-20
  1.3505000E-02    6.4682701E-21
  1.3540000E-02   -1.8261401E-20
  1.3575000E-02   -1.5243853E-20
  1.3610000E-02    1.8281806E-20
  1.3645000E-02    2.7564960E-20
  1.3680000E-02   -1.2456731E-20
  1.3715000E-02   -3.9866409E-20
  1.3750000E-02    1.1782620E-21
  1.3785000E-02    5.3600703E-20
  1.3820000E-02    1.9021773E-20
  1.3855000E-02   -6.3338609E-20
  1.3890000E-02   -4.8739275E-20
  1.3925000E-02    6.6775266E-20
  1.3960000E-02    8.8935719E-20
  1.3995000E-02   -5.7456586E-20
  1.4030000E-02   -1.3434906E-19
  1.4065000E-02    2.3873864E-20
  1.4100000E-02    1.7812207E-19
  1.4135000E-02    3.9788809E-20
  1.4170000E-02   -2.0913733E-19
  1.4205000E-02   -1.3295826E-19
  1.4240000E-02    2.2254056E-19
  1.4275000E-02    2.5979016E-19
  1.4310000E-02   -1.8773696E-19
  1.4345000E-02   -3.9336659E-19
  1.4380000E-02    9.8891226E-20
  1.4415000E-02    5.2522190E-19
  1.4450000E-02    8.4742198E-20
  1.4485000E-02   -6.4567191E-19
  1.4520000E-02   -3.5578168E-19
  1.4555000E-02    6.6890255E-19
  1.4590000E-02    6.8841393E-19
  1.4625000E-02   -6.1614145E-19
  1.4660000E-02   -1.1419038E-18
  1.4695000E-02    3.0587045E-19
  1.4730000E-02    1.5216910E-18
  1.4765000E-02    1.9885214E-19
  1.4800000E-02   -1.8080754E-18
  1.4835000E-02   -9.5505519E-19
  1.4870000E-02    1.8833788E-18
  1.4905000E-02    1.9013148E-18
  1.4940000E-02   -1.6374130E-18
  1.4975000E-02   -2.9936740E-18
  1.5010000E-02    9.3732974E-19
  1.5045000E-02    4.0234900E-18
  1.5080000E-02    3.1965777E-19
  1.5115000E-02   -4.8108725E-18
  1.5150000E-02   -2.1200358E-18
  1.5185000E-02    5.1063807E-18
  1.5220000E-02    4.5626790E-18
  1.5255000E-02   -4.5839562E-18
  1.5290000E-02   -7.3036665E-18
  1.5325000E-02    2.7009602E-18
  1.5360000E-02    9.6928238E-18
  1.5395000E-02    3.2926465E-19
  1.5430000E-02   -1.1689012E-17
  1.5465000E-02   -4.7246778E-18
  1.5500000E-02    1.2287674E-17
  1.5535000E-02    1.0412193E-17
  1.5570000E-02   -1.0604887E-17
  1.5605000E-02   -1.6346265E-17
  1.5640000E-02    6.8411542E-18
  1.5675001E-02    2.2019014E-17
  1.5710000E-02    1.0747952E-19
  1.5745001E-02   -2.5926471E-17
  1.5780000E-02   -9.9280120E-18
  1.5814999E-02    2.6726384E-17
  1.5850000E-02    2.1536804E-17
  1.5884999E-02   -2.3395040E-17
  1.5920000E-02   -3.3923345E-17
  1.5954999E-02    1.4440170E-17
  1.5990000E-02    4.5354442E-17
  1.6024999E-02    2.8452640E-19
  1.6060000E-02   -5.2160980E-17
  1.6094999E-02   -1.8979474E-17
  1.6130000E-02    5.2891619E-17
  1.6164999E-02    4.1257380E-17
  1.6200000E-02   -4.5531204E-17
  1.6235000E-02   -6.3513740E-17
  1.6270000E-02    2.8001642E-17
  1.6305000E-02    8.1970197E-17
  1.6340001E-02   -1.9139094E-18
  1.6375000E-02   -9.1753203E-17
  1.6410001E-02   -3.0560138E-17
  1.6445000E-02    8.9614617E-17
  1.6480001E-02    6.4764980E-17
  1.6515000E-02   -7.2988631E-17
  1.6550001E-02   -9.4789465E-17
  1.6585000E-02    4.4108701E-17
  1.6620001E-02    1.1628841E-16
  1.6655000E-02   -2.4953549E-18
  1.6690001E-02   -1.1961284E-16
  1.6725000E-02   -3.9345183E-17
  1.6759999E-02    1.0827060E-16
  1.6795000E-02    7.6172449E-17
  1.6829999E-02   -7.7574990E-17
  1.6865000E-02   -9.6415795E-17
  1.6899999E-02    3.9280121E-17
  1.6935000E-02    9.2845822E-17
  1.6969999E-02   -5.3755672E-18
  1.7005000E-02   -6.6850732E-17
  1.7039999E-02   -9.6370901E-18
  1.7075000E-02    2.4951971E-17
  1.7109999E-02   -7.1053566E-18
  1.7145000E-02    1.8998967E-17
  1.7180000E-02    6.8330194E-17
  1.7215000E-02   -3.6405321E-17
  1.7250000E-02   -1.7493380E-16
  1.7285001E-02   -6.0696474E-18
  1.7320000E-02    3.0447595E-16
  1.7355001E-02    1.4175863E-16
  1.7390000E-02   -4.1564971E-16
  1.7425001E-02   -3.9730364E-16
  1.7460000E-02    4.3990484E-16
  1.7495001E-02    7.5343327E-16
  1.7530000E-02   -3.0654091E-16
  1.7565001E-02   -1.1672390E-15
  1.7600000E-02   -5.1618214E-17
  1.7635001E-02    1.5536747E-15
  1.7670000E-02    6.8888782E-16
  1.7704999E-02   -1.7820709E-15
  1.7740000E-02   -1.6169672E-15
  1.7774999E-02    1.6720532E-15
  1.7810000E-02    2.7559136E-15
  1.7844999E-02   -1.0516476E-15
  1.7880000E-02   -3.9342165E-15
  1.7914999E-02   -2.2048044E-16
  1.7950000E-02    4.8756830E-15
  1.7984999E-02    2.1888147E-15
  1.8020000E-02   -5.2437925E-15
  1.8054999E-02   -4.7938956E-15
  1.8090000E-02    4.6194428E-15
  1.8124999E-02    7.7486938E-15
  1.8160000E-02   -2.6369622E-15
  1.8195000E-02   -1.0544982E-14
  1.8230001E-02   -9.1884472E-16
  1.8265000E-02    1.2497930E-14
  1.8300001E-02    6.0202071E-15
  1.8335000E-02   -1.2799595E-14
  1.8370001E-02   -1.2306407E-14
  1.8405000E-02    1.0630033E-14
  1.8440001E-02    1.8998327E-14
  1.8475000E-02   -5.2986112E-15
  1.8510001E-02   -2.4836451E-14
  1.8545000E-02   -3.4218871E-15
  1.8580001E-02    2.8269969E-14
  1.8615000E-02    1.5177585E-14
  1.8650001E-02   -2.7590487E-14
  1.8685000E-02   -2.8820452E-14
  1.8719999E-02    2.1277285E-14
  1.8755000E-02    4.2353274E-14
  1.8789999E-02   -8.3766985E-15
  1.8825000E-02   -5.3030195E-14
  1.8859999E-02   -1.1082694E-14
  1.8895000E-02    5.7627236E-14
  1.8929999E-02    3.5670055E-14
  1.8965000E-02   -5.2997086E-14
  1.8999999E-02   -6.2398254E-14
  1.9035000E-02    3.6736839E-14
  1.9069999E-02    8.6758651E-14
  1.9105000E-02   -7.9700210E-15
  1.9140000E-02   -1.0311801E-13
  1.9175000E-02   -3.1873257E-14
  1.9210000E-02    1.0561087E-13
  1.9245001E-02    7.8671194E-14
  1.9280000E-02   -8.9187196E-14
  1.9315001E-02   -1.2543353E-13
  1.9350000E-02    5.1118747E-14
  1.9385001E-02    1.6298411E-13
  1.9420000E-02    7.7772092E-15
  1.9455001E-02   -1.8113529E-13
  1.9490000E-02   -8.2103507E-14
  1.9525001E-02    1.7062041E-13
  1.9560000E-02    1.6163758E-13
  1.9595001E-02   -1.2537222E-13
  1.9630000E-02   -2.3206730E-13
  1.9664999E-02    4.4830293E-14
  1.9700000E-02    2.7690914E-13
  1.9734999E-02    6.4320782E-14
  1.9770000E-02   -2.8048614E-13
  1.9804999E-02   -1.8751900E-13
  1.9840000E-02    2.3161955E-13
  1.9874999E-02    3.0329900E-13
  1.9910000E-02   -1.2744756E-13
  1.9944999E-02   -3.8627492E-13
  1.9980000E-02   -2.3775276E-14
  2.0014999E-02    4.1167316E-13
  2.0050000E-02    2.0143154E-13
  2.0085000E-02   -3.6124117E-13
  2.0120000E-02   -3.7408371E-13
  2.0155000E-02    2.2908509E-13
  2.0190001E-02    5.0395332E-13
  2.0225000E-02   -2.6118305E-14
  2.0260001E-02   -5.5396144E-13
  2.0295000E-02   -2.1814291E-13
  2.0330001E-02    4.9668987E-13
  2.0365000E-02    4.5800272E-13
  2.0400001E-02   -3.2313415E-13
  2.0435000E-02   -6.3839320E-13
  2.0470001E-02    4.9401133E-14
  2.0505000E-02    7.0581339E-13
  2.0540001E-02    2.8113606E-13
  2.0575000E-02   -6.2156015E-13
  2.0609999E-02   -6.0184990E-13
  2.0645000E-02    3.7459261E-13
  2.0679999E-02    8.3349137E-13
  2.0715000E-02    9.2696016E-15
  2.0749999E-02   -9.0048552E-13
  2.0785000E-02   -4.6493912E-13
  2.0819999E-02    7.5032862E-13
  2.0855000E-02    8.9479715E-13
  2.0889999E-02   -3.7183391E-13
  2.0925000E-02   -1.1850181E-12
  2.0959999E-02   -1.9241326E-13
  2.0995000E-02    1.2298839E-12
  2.1029999E-02    8.4427913E-13
  2.1065000E-02   -9.5910075E-13
  2.1100000E-02   -1.4409503E-12
  2.1135001E-02    3.6331875E-13
  2.1170000E-02    1.8195549E-12
  2.1205001E-02    4.9001791E-13
  2.1240000E-02   -1.8316403E-12
  2.1275001E-02   -1.4554503E-12
  2.1310000E-02    1.3819315E-12
  2.1345001E-02    2.3270053E-12
  2.1380000E-02   -4.6221056E-13
  2.1415001E-02   -2.8731884E-12
  2.1450000E-02   -8.2801469E-13
  2.1485001E-02    2.8852311E-12
  2.1520000E-02    2.2819353E-12
  2.1555001E-02   -2.2292962E-12
  2.1590000E-02   -3.6103189E-12
  2.1624999E-02    8.9164293E-13
  2.1660000E-02    4.4897220E-12
  2.1694999E-02    9.9507154E-13
  2.1730000E-02   -4.6266324E-12
  2.1764999E-02   -3.1528532E-12
  2.1800000E-02    3.8263611E-12
  2.1834999E-02    5.1914874E-12
  2.1870000E-02   -2.0514450E-12
  2.1904999E-02   -6.6700933E-12
  2.1940000E-02   -5.4307963E-13
  2.1974999E-02    7.1795356E-12
  2.2010000E-02    3.6097774E-12
  2.2045000E-02   -6.4296728E-12
  2.2080000E-02   -6.6473255E-12
  2.2115000E-02    4.3251193E-12
  2.2150001E-02    9.0748953E-12
  2.2185000E-02   -1.0128664E-12
  2.2220001E-02   -1.0331618E-11
  2.2255000E-02   -3.1104574E-12
  2.2290001E-02    9.9847717E-12
  2.2325000E-02    7.4376590E-12
  2.2360001E-02   -7.8267748E-12
  2.2395000E-02   -1.1232826E-11
  2.2430001E-02    3.9430551E-12
  2.2465000E-02    1.3746226E-11
  2.2500001E-02    1.2647979E-12
  2.2535000E-02   -1.4344417E-11
  2.2569999E-02   -7.1083413E-12
  2.2605000E-02    1.2634898E-11
  2.2639999E-02    1.2693672E-11
  2.2675000E-02   -8.5645900E-12
  2.2709999E-02   -1.7047403E-11
  2.2745000E-02    2.4727093E-12
  2.2779999E-02    1.9270727E-11
  2.2815000E-02    4.9149161E-12
  2.2849999E-02   -1.8700734E-11
  2.2885000E-02   -1.2556721E-11
  2.2919999E-02    1.5053231E-11
  2.2955000E-02    1.9227720E-11
  2.2990000E-02   -8.5225134E-12
  2.3025000E-02   -2.3701643E-11
  2.3060000E-02   -1.8533965E-13
  2.3095001E-02    2.4959737E-11
  2.3130000E-02    9.9016802E-12
  2.3165001E-02   -2.2395941E-11
  2.3200000E-02   -1.9133145E-11
  2.3235001E-02    1.5980614E-11
  2.3270000E-02    2.6278644E-11
  2.3305001E-02   -6.3468003E-12
  2.3340000E-02   -2.9900728E-11
  2.3375001E-02   -5.2322500E-12
  2.3410000E-02    2.9009536E-11
  2.3445001E-02    1.6990610E-11
  2.3480000E-02   -2.3304825E-11
  2.3514999E-02   -2.6934628E-11
  2.3550000E-02    1.3320278E-11
  2.3584999E-02    3.3192716E-11
  2.3620000E-02   -4.2166555E-13
  2.3654999E-02   -3.4389717E-11
  2.3690000E-02   -1.3364357E-11
  2.3724999E-02    2.9969076E-11
  2.3760000E-02    2.5680229E-11
  2.3794999E-02   -2.0384673E-11
  2.3830000E-02   -3.4277567E-11
  2.3864999E-02    7.0988449E-12
  2.3900000E-02    3.7481140E-11
  2.3934999E-02    7.6371695E-12
  2.3970000E-02   -3.4573656E-11
  2.4005000E-02   -2.1196310E-11
  2.4040001E-02    2.6001158E-11
  2.4075000E-02    3.1103529E-11
  2.4110001E-02   -1.3335069E-11
  2.4145000E-02   -3.5566158E-11
  2.4180001E-02   -1.0237082E-12
  2.4215000E-02    3.3877123E-11
  2.4250001E-02    1.4344162E-11
  2.4285000E-02   -2.6586565E-11
  2.4320001E-02   -2.4161862E-11
  2.4355000E-02    1.5382062E-11
  2.4390001E-02    2.8825636E-11
  2.4425000E-02   -2.6976609E-12
  2.4460001E-02   -2.7856838E-11
  2.4495000E-02   -8.8594453E-12
  2.4529999E-02    2.2024844E-11
  2.4565000E-02    1.7121934E-11
  2.4599999E-02   -1.3115637E-11
  2.4635000E-02   -2.0860503E-11
  2.4669999E-02    3.4470905E-12
  2.4705000E-02    2.0033891E-11
  2.4739999E-02    4.7429899E-12
  2.4775000E-02   -1.5720871E-11
  2.4809999E-02   -9.8682356E-12
  2.4845000E-02    9.7560441E-12
  2.4879999E-02    1.1368537E-11
  2.4915000E-02   -4.1746359E-12
  2.4950000E-02   -9.7903326E-12
  2.4985000E-02    6.2079118E-13
  2.5020000E-02    6.5551566E-12
  2.5055001E-02    1.2143386E-13
  2.5090000E-02   -3.4729136E-12
  2.5125001E-02    1.6693975E-12
  2.5160000E-02    2.1435993E-12
  2.5195001E-02   -4.7814296E-12
  2.5230000E-02   -3.4332669E-12
  2.5265001E-02    7.4890658E-12
  2.5300000E-02    7.1866358E-12
  2.5335001E-02   -8.1222555E-12
  2.5370000E-02   -1.2239524E-11
  2.5405001E-02    5.6471121E-12
  2.5440000E-02    1.6762562E-11
  2.5474999E-02   -6.1746215E-14
  2.5510000E-02   -1.8830408E-11
  2.5544999E-02   -7.5146235E-12
  2.5580000E-02    1.7068284E-11
  2.5614999E-02    1.5140212E-11
  2.5650000E-02   -1.1106434E-11
  2.5684999E-02   -2.0571487E-11
  2.5720000E-02    1.7822599E-12
  2.5754999E-02    2.1924176E-11
  2.5790000E-02    9.0402286E-12
  2.5824999E-02   -1.8217601E-11
  2.5860000E-02   -1.8910823E-11
  2.5895000E-02    9.7392684E-12
  2.5930000E-02    2.5514677E-11
  2.5965000E-02    2.0893463E-12
  2.6000001E-02   -2.7205266E-11
  2.6035000E-02   -1.5026860E-11
  2.6070001E-02    2.3446581E-11
  2.6105000E-02    2.6640917E-11
  2.6140001E-02   -1.4789716E-11
  2.6175000E-02   -3.4745627E-11
  2.6210001E-02    2.8151633E-12
  2.6245000E-02    3.8006095E-11
  2.6280001E-02    1.0490418E-11
  2.6315000E-02   -3.5870334E-11
  2.6350001E-02   -2.2946905E-11
  2.6385000E-02    2.8715924E-11
  2.6419999E-02    3.2715906E-11
  2.6455000E-02   -1.7394320E-11
  2.6489999E-02   -3.8109189E-11
  2.6525000E-02    3.4941355E-12
  2.6559999E-02    3.8159770E-11
  2.6595000E-02    1.1313526E-11
  2.6629999E-02   -3.2093536E-11
  2.6665000E-02   -2.4716899E-11
  2.6699999E-02    2.0129010E-11
  2.6735000E-02    3.4572293E-11
  2.6769999E-02   -2.8526873E-12
  2.6805000E-02   -3.8129545E-11
  2.6839999E-02   -1.7342339E-11
  2.6875000E-02    3.3919933E-11
  2.6910000E-02    3.7753828E-11
  2.6945001E-02   -2.0825669E-11
  2.6980000E-02   -5.4142000E-11