 -4.8000002E-03    1.0000000E-24
 -4.7650002E-03    1.0000000E-24
 -4.7300002E-03    1.0000002E-24
 -4.6950001E-03    1.0000002E-24
 -4.6600001E-03    1.0000002E-24
 -4.6250001E-03    1.0000000E-24
 -4.5900000E-03    1.0000000E-24
 -4.5550000E-03    1.0000002E-24
 -4.5200000E-03    1.0000002E-24
 -4.4849999E-03    1.0000002E-24
 -4.4499999E-03    1.0000001E-24
 -4.4149999E-03    9.9999982E-25
 -4.3799998E-03    9.9999982E-25
 -4.3449998E-03    1.0000005E-24
 -4.3100002E-03    1.0000006E-24
 -4.2750002E-03    9.9999992E-25
 -4.2400002E-03    9.9999963E-25
 -4.2050001E-03    1.0000001E-24
 -4.1700001E-03    1.0000002E-24
 -4.1350001E-03    9.9999992E-25
 -4.1000000E-03    1.0000000E-24
 -4.0650000E-03    1.0000002E-24
 -4.0300000E-03    1.0000002E-24
 -3.9949999E-03    1.0000003E-24
 -3.9599999E-03    9.9999992E-25
 -3.9249999E-03    9.9999963E-25
 -3.8900001E-03    1.0000001E-24
 -3.8550000E-03    1.0000004E-24
 -3.8200000E-03    9.9999992E-25
 -3.7849999E-03    9.9999992E-25
 -3.7499999E-03    1.0000002E-24
 -3.7150001E-03    1.0000003E-24
 -3.6800001E-03    1.0000003E-24
 -3.6450000E-03    1.0000003E-24
 -3.6100000E-03    9.9999972E-25
 -3.5750000E-03    9.9999943E-25
 -3.5399999E-03    1.0000002E-24
 -3.5049999E-03    1.0000006E-24
 -3.4700001E-03    1.0000002E-24
 -3.4350001E-03    1.0000002E-24
 -3.4000000E-03    1.0000002E-24
 -3.3650000E-03    9.9999953E-25
 -3.3300000E-03    9.9999943E-25
 -3.2949999E-03    1.0000001E-24
 -3.2599999E-03    1.0000005E-24
 -3.2250001E-03    1.0000002E-24
 -3.1900001E-03    1.0000001E-24
 -3.1550000E-03    1.0000000E-24
 -3.1200000E-03    9.9999972E-25
 -3.0850000E-03    9.9999992E-25
 -3.0499999E-03    1.0000002E-24
 -3.0149999E-03    1.0000001E-24
 -2.9800001E-03    9.9999992E-25
 -2.9450001E-03    1.0000002E-24
 -2.9100000E-03    1.0000002E-24
 -2.8750000E-03    1.0000000E-24
 -2.8400000E-03    1.0000002E-24
 -2.8049999E-03    1.0000001E-24
 -2.7699999E-03    9.9999963E-25
 -2.7350001E-03    1.0000000E-24
 -2.7000001E-03    1.0000006E-24
 -2.6650000E-03    1.0000005E-24
 -2.6300000E-03    1.0000003E-24
 -2.5950000E-03    1.0000002E-24
 -2.5599999E-03    9.9999982E-25
 -2.5249999E-03    1.0000002E-24
 -2.4900001E-03    1.0000006E-24
 -2.4550001E-03    1.0000001E-24
 -2.4200000E-03    9.9999943E-25
 -2.3850000E-03    9.9999972E-25
 -2.3500000E-03    1.0000002E-24
 -2.3149999E-03    1.0000002E-24
 -2.2799999E-03    1.0000007E-24
 -2.2450001E-03    1.0000006E-24
 -2.2100001E-03    9.9999943E-25
 -2.1750000E-03    9.9999963E-25
 -2.1400000E-03    1.0000010E-24
 -2.1050000E-03    1.0000003E-24
 -2.0699999E-03    9.9999874E-25
 -2.0349999E-03    9.9999953E-25
 -2.0000001E-03    1.0000009E-24
 -1.9650001E-03    1.0000007E-24
 -1.9300000E-03    1.0000003E-24
 -1.8950000E-03    1.0000002E-24
 -1.8600000E-03    1.0000000E-24
 -1.8250000E-03    1.0000000E-24
 -1.7900000E-03    9.9999972E-25
 -1.7550000E-03    9.9999913E-25
 -1.7199999E-03    9.9999953E-25
 -1.6850000E-03    1.0000010E-24
 -1.6500000E-03    1.0000013E-24
 -1.6150000E-03    1.0000004E-24
 -1.5800000E-03    9.9999963E-25
 -1.5450000E-03    9.9999943E-25
 -1.5100000E-03    9.9999963E-25
 -1.4750001E-03    1.0000006E-24
 -1.4400000E-03    1.0000011E-24
 -1.4050000E-03    9.9999982E-25
 -1.3700000E-03    9.9999933E-25
 -1.3350000E-03    9.9999992E-25
 -1.3000000E-03    1.0000002E-24
 -1.2650000E-03    1.0000004E-24
 -1.2300001E-03    1.0000007E-24
 -1.1950000E-03    9.9999982E-25
 -1.1600000E-03    9.9999884E-25
 -1.1250000E-03    9.9999982E-25
 -1.0900000E-03    1.0000013E-24
 -1.0550000E-03    1.0000012E-24
 -1.0200000E-03    1.0000001E-24
 -9.8500005E-04    9.9999933E-25
 -9.5000002E-04    9.9999963E-25
 -9.1499998E-04    9.9999992E-25
 -8.8000001E-04    9.9999992E-25
 -8.4499997E-04    1.0000009E-24
 -8.1000000E-04    1.0000015E-24
 -7.7500002E-04    9.9999992E-25
 -7.3999999E-04    9.9999874E-25
 -7.0500001E-04    9.9999933E-25
 -6.6999998E-04    1.0000003E-24
 -6.3500000E-04    1.0000006E-24
 -6.0000003E-04    1.0000004E-24
 -5.6499999E-04    9.9999992E-25
 -5.3000002E-04    9.9999933E-25
 -4.9499999E-04    9.9999913E-25
 -4.6000001E-04    9.9999943E-25
 -4.2500001E-04    1.0000008E-24
 -3.9000000E-04    1.0000016E-24
 -3.5500000E-04    1.0000008E-24
 -3.1999999E-04    9.9999982E-25
 -2.8499999E-04    9.9999953E-25
 -2.5000001E-04    9.9999933E-25
 -2.1499999E-04    9.9999972E-25
 -1.8000000E-04    1.0000006E-24
 -1.4500000E-04    1.0000007E-24
 -1.1000000E-04    1.0000006E-24
 -7.5000004E-05    1.0000010E-24
 -3.9999999E-05    1.0000011E-24
 -4.9999999E-06    9.9999982E-25
  2.9999999E-05    9.9999854E-25
  6.5000000E-05    9.9999893E-25
  9.9999997E-05    9.9999992E-25
  1.3499999E-04    1.0000004E-24
  1.7000000E-04    1.0000008E-24
  2.0500000E-04    1.0000014E-24
  2.3999999E-04    1.0000003E-24
  2.7500000E-04    9.9999854E-25
  3.1000000E-04    9.9999884E-25
  3.4500001E-04    1.0000005E-24
  3.8000001E-04    1.0000007E-24
  4.1499999E-04    1.0000001E-24
  4.4999999E-04    9.9999953E-25
  4.8500000E-04    9.9999884E-25
  5.2000000E-04    1.0000002E-24
  5.5499998E-04    1.0000021E-24
  5.9000001E-04    1.0000010E-24
  6.2499999E-04    9.9999943E-25
  6.6000002E-04    9.9999982E-25
  6.9500000E-04    9.9999982E-25
  7.3000003E-04    9.9999923E-25
  7.6500000E-04    1.0000004E-24
  7.9999998E-04    1.0000016E-24
  8.3500001E-04    1.0000002E-24
  8.6999999E-04    9.9999913E-25
  9.0500002E-04    9.9999953E-25
  9.4000000E-04    9.9999982E-25
  9.7499997E-04    1.0000003E-24
  1.0100000E-03    1.0000016E-24
  1.0450000E-03    1.0000011E-24
  1.0800000E-03    9.9999884E-25
  1.1150000E-03    9.9999874E-25
  1.1500000E-03    1.0000003E-24
  1.1849999E-03    1.0000009E-24
  1.2200000E-03    1.0000000E-24
  1.2550000E-03    9.9999913E-25
  1.2900000E-03    1.0000000E-24
  1.3250000E-03    1.0000014E-24
  1.3600000E-03    1.0000003E-24
  1.3950000E-03    9.9999844E-25
  1.4299999E-03    9.9999972E-25
  1.4650000E-03    1.0000020E-24
  1.5000000E-03    1.0000008E-24
  1.5350000E-03    9.9999884E-25
  1.5700000E-03    9.9999972E-25
  1.6050000E-03    1.0000011E-24
  1.6400000E-03    1.0000004E-24
  1.6749999E-03    9.9999933E-25
  1.7100000E-03    9.9999953E-25
  1.7450000E-03    1.0000002E-24
  1.7800000E-03    1.0000006E-24
  1.8150000E-03    1.0000009E-24
  1.8500000E-03    1.0000002E-24
  1.8850000E-03    9.9999913E-25
  1.9200000E-03    9.9999953E-25
  1.9550000E-03    1.0000010E-24
  1.9900000E-03    1.0000010E-24
  2.0250001E-03    1.0000002E-24
  2.0600001E-03    1.0000001E-24
  2.0949999E-03    9.9999933E-25
  2.1299999E-03    9.9999815E-25
  2.1650000E-03    9.9999992E-25
  2.2000000E-03    1.0000023E-24
  2.2350000E-03    1.0000020E-24
  2.2700001E-03    1.0000002E-24
  2.3050001E-03    9.9999893E-25
  2.3399999E-03    9.9999864E-25
  2.3749999E-03    9.9999982E-25
  2.4100000E-03    1.0000007E-24
  2.4450000E-03    1.0000002E-24
  2.4800000E-03    1.0000004E-24
  2.5150001E-03    1.0000010E-24
  2.5500001E-03    9.9999972E-25
  2.5849999E-03    9.9999893E-25
  2.6199999E-03    9.9999953E-25
  2.6550000E-03    9.9999963E-25
  2.6900000E-03    9.9999982E-25
  2.7250000E-03    1.0000008E-24
  2.7600001E-03    1.0000010E-24
  2.7950001E-03    1.0000004E-24
  2.8299999E-03    1.0000005E-24
  2.8649999E-03    1.0000001E-24
  2.9000000E-03    9.9999903E-25
  2.9350000E-03    9.9999943E-25
  2.9700000E-03    1.0000011E-24
  3.0050001E-03    1.0000019E-24
  3.0400001E-03    1.0000007E-24
  3.0749999E-03    9.9999943E-25
  3.1099999E-03    9.9999854E-25
  3.1450000E-03    9.9999834E-25
  3.1800000E-03    9.9999923E-25
  3.2150000E-03    1.0000008E-24
  3.2500001E-03    1.0000009E-24
  3.2850001E-03    9.9999913E-25
  3.3199999E-03    9.9999893E-25
  3.3549999E-03    1.0000012E-24
  3.3900000E-03    1.0000020E-24
  3.4250000E-03    1.0000002E-24
  3.4600000E-03    9.9999943E-25
  3.4950001E-03    1.0000007E-24
  3.5300001E-03    1.0000007E-24
  3.5649999E-03    9.9999903E-25
  3.5999999E-03    9.9999972E-25
  3.6350000E-03    1.0000017E-24
  3.6700000E-03    1.0000007E-24
  3.7050000E-03    9.9999903E-25
  3.7400001E-03    1.0000001E-24
  3.7750001E-03    9.9999992E-25
  3.8099999E-03    9.9999854E-25
  3.8449999E-03    1.0000001E-24
  3.8800000E-03    1.0000014E-24
  3.9149998E-03    9.9999903E-25
  3.9499998E-03    9.9999815E-25
  3.9849998E-03    1.0000003E-24
  4.0199999E-03    1.0000010E-24
  4.0549999E-03    1.0000011E-24
  4.0899999E-03    1.0000011E-24
  4.1250000E-03    9.9999864E-25
  4.1600000E-03    9.9999765E-25
  4.1950000E-03    1.0000009E-24
  4.2300001E-03    1.0000019E-24
  4.2650001E-03    9.9999972E-25
  4.3000001E-03    1.0000000E-24
  4.3350002E-03    1.0000008E-24
  4.3700002E-03    9.9999953E-25
  4.4049998E-03    9.9999982E-25
  4.4399998E-03    1.0000014E-24
  4.4749998E-03    9.9999982E-25
  4.5099999E-03    9.9999864E-25
  4.5449999E-03    1.0000005E-24
  4.5799999E-03    1.0000006E-24
  4.6150000E-03    9.9999913E-25
  4.6500000E-03    1.0000002E-24
  4.6850001E-03    1.0000006E-24
  4.7200001E-03    9.9999893E-25
  4.7550001E-03    9.9999953E-25
  4.7900002E-03    1.0000004E-24
  4.8250002E-03    9.9999963E-25
  4.8600002E-03    1.0000012E-24
  4.8949998E-03    1.0000021E-24
  4.9299998E-03    9.9999903E-25
  4.9649999E-03    9.9999854E-25
  4.9999999E-03    1.0000008E-24
  5.0349999E-03    1.0000001E-24
  5.0700000E-03    9.9999972E-25
  5.1050000E-03    1.0000020E-24
  5.1400000E-03    1.0000013E-24
  5.1750001E-03    9.9999884E-25
  5.2100001E-03    9.9999913E-25
  5.2450001E-03    9.9999992E-25
  5.2800002E-03    9.9999953E-25
  5.3150002E-03    1.0000001E-24
  5.3500002E-03    1.0000013E-24
  5.3849998E-03    1.0000008E-24
  5.4199998E-03    1.0000000E-24
  5.4549999E-03    1.0000004E-24
  5.4899999E-03    9.9999982E-25
  5.5249999E-03    9.9999775E-25
  5.5600000E-03    9.9999903E-25
  5.5950000E-03    1.0000022E-24
  5.6300000E-03    1.0000012E-24
  5.6650001E-03    9.9999903E-25
  5.7000001E-03    9.9999953E-25
  5.7350001E-03    9.9999992E-25
  5.7700002E-03    9.9999982E-25
  5.8050002E-03    1.0000005E-24
  5.8400002E-03    9.9999982E-25
  5.8749998E-03    9.9999963E-25
  5.9099998E-03    1.0000016E-24
  5.9449999E-03    1.0000011E-24
  5.9799999E-03    9.9999893E-25
  6.0149999E-03    9.9999953E-25
  6.0500000E-03    1.0000008E-24
  6.0850000E-03    1.0000009E-24
  6.1200000E-03    1.0000008E-24
  6.1550001E-03    1.0000002E-24
  6.1900001E-03    9.9999913E-25
  6.2250001E-03    9.9999953E-25
  6.2600002E-03    1.0000003E-24
  6.2950002E-03    1.0000003E-24
  6.3299998E-03    9.9999972E-25
  6.3649998E-03    9.9999913E-25
  6.3999998E-03    1.0000003E-24
  6.4349999E-03    1.0000010E-24
  6.4699999E-03    9.9999913E-25
  6.5049999E-03    9.9999854E-25
  6.5400000E-03    9.9999972E-25
  6.5750000E-03    1.0000003E-24
  6.6100000E-03    1.0000015E-24
  6.6450001E-03    1.0000020E-24
  6.6800001E-03    9.9999992E-25
  6.7150001E-03    9.9999903E-25
  6.7500002E-03    9.9999982E-25
  6.7850002E-03    9.9999884E-25
  6.8199998E-03    9.9999874E-25
  6.8549998E-03    1.0000011E-24
  6.8899998E-03    1.0000015E-24
  6.9249999E-03    1.0000000E-24
  6.9599999E-03    9.9999972E-25
  6.9949999E-03    9.9999972E-25
  7.0300000E-03    1.0000000E-24
  7.0650000E-03    1.0000012E-24
  7.1000000E-03    1.0000007E-24
  7.1350001E-03    9.9999923E-25
  7.1700001E-03    9.9999982E-25
  7.2050001E-03    1.0000009E-24
  7.2400002E-03    1.0000012E-24
  7.2750002E-03    1.0000010E-24
  7.3099998E-03    9.9999982E-25
  7.3449998E-03    9.9999923E-25
  7.3799998E-03    1.0000008E-24
  7.4149999E-03    1.0000003E-24
  7.4499999E-03    9.9999785E-25
  7.4850000E-03    9.9999903E-25
  7.5200000E-03    1.0000020E-24
  7.5550000E-03    9.9999953E-25
  7.5900001E-03    9.9999558E-25
  7.6250001E-03    9.9999893E-25
  7.6600001E-03    1.0000053E-24
  7.6950002E-03    1.0000037E-24
  7.7300002E-03    9.9999529E-25
  7.7650002E-03    9.9999568E-25
  7.7999998E-03    1.0000076E-24
  7.8349998E-03    1.0000079E-24
  7.8699999E-03    9.9998710E-25
  7.9049999E-03    9.9998237E-25
  7.9399999E-03    1.0000196E-24
  7.9750000E-03    1.0000365E-24
  8.0100000E-03    9.9997566E-25
  8.0450000E-03    9.9993218E-25
  8.0800001E-03    1.0000226E-24
  8.1150001E-03    1.0001165E-24
  8.1500001E-03    9.9999213E-25
  8.1850002E-03    9.9980833E-25
  8.2200002E-03    9.9996472E-25
  8.2550002E-03    1.0003036E-24
  8.2900003E-03    1.0001354E-24
  8.3250003E-03    9.9954179E-25
  8.3600003E-03    9.9966268E-25
  8.3950004E-03    1.0006546E-24
  8.4300004E-03    1.0007134E-24
  8.4650004E-03    9.9913010E-25
  8.5000005E-03    9.9862819E-25
  8.5349996E-03    1.0010391E-24
  8.5699996E-03    1.0024703E-24
  8.6049996E-03    9.9899245E-25
  8.6399997E-03    9.9579431E-25
  8.6749997E-03    1.0004802E-24
  8.7099997E-03    1.0068045E-24
  8.7449998E-03    1.0010686E-24
  8.7799998E-03    9.8952631E-25
  8.8149998E-03    9.9547186E-25
  8.8499999E-03    1.0152713E-24
  8.8849999E-03    1.0113014E-24
  8.9199999E-03    9.7913189E-25
  8.9550000E-03    9.7653496E-25
  8.9900000E-03    1.0261401E-24
  9.0250000E-03    1.0439052E-24
  9.0600001E-03    9.7152461E-25
  9.0950001E-03    9.2371964E-25
  9.1300001E-03    1.0227432E-24
  9.1650002E-03    1.1246536E-24
  9.2000002E-03    1.0001669E-24
  9.2350002E-03    8.0754019E-25
  9.2700003E-03    9.4476132E-25
  9.3050003E-03    1.2803330E-24
  9.3400003E-03    1.1655106E-24
  9.3750004E-03    6.1790873E-25
  9.4100004E-03    6.3595176E-25
  9.4450004E-03    1.4780536E-24
  9.4799995E-03    1.6947485E-24
  9.5149996E-03    4.7529082E-25
  9.5499996E-03   -2.1015225E-25
  9.5849996E-03    1.4399532E-24
  9.6199997E-03    2.9632990E-24
  9.6549997E-03    9.1630415E-25
  9.6899997E-03   -1.9891179E-24
  9.7249998E-03    2.3518586E-25
  9.7599998E-03    5.2691960E-24
  9.7949998E-03    3.4289097E-24
  9.8299999E-03   -4.6721853E-24
  9.8649999E-03   -4.3469336E-24
  9.8999999E-03    7.8615267E-24
  9.9350000E-03    1.1059461E-23
  9.9700000E-03   -6.1637726E-24
  1.0005000E-02   -1.6145834E-23
  1.0040000E-02    6.3967137E-24
  1.0075000E-02    2.8072584E-23
  1.0110000E-02    1.3306093E-24
  1.0145000E-02   -3.8903386E-23
  1.0180000E-02   -1.1810556E-23
  1.0215000E-02    5.5810073E-23
  1.0250000E-02    3.6849072E-23
  1.0285000E-02   -6.8323262E-23
  1.0320000E-02   -7.3169601E-23
  1.0355000E-02    7.9279694E-23
  1.0390000E-02    1.3390915E-22
  1.0425000E-02   -7.1476636E-23
  1.0460000E-02   -2.1542292E-22
  1.0495000E-02    3.8150478E-23
  1.0530000E-02    3.2703351E-22
  1.0565000E-02    5.0420704E-23
  1.0600000E-02   -4.5531310E-22
  1.0635000E-02   -2.1561182E-22
  1.0670000E-02    5.9052360E-22
  1.0705000E-02    5.0148345E-22
  1.0740000E-02   -6.8703115E-22
  1.0775000E-02   -9.3872206E-22
  1.0810000E-02    6.8596164E-22
  1.0845000E-02    1.5675613E-21
  1.0880000E-02   -4.7318240E-22
  1.0915000E-02   -2.3893655E-21
  1.0950000E-02   -9.7006863E-23
  1.0985000E-02    3.3724963E-21
  1.1020000E-02    1.2362340E-21
  1.1055000E-02   -4.3826828E-21
  1.1090000E-02   -3.1798818E-21
  1.1125000E-02    5.1658730E-21
  1.1160000E-02    6.1871377E-21
  1.1195000E-02   -5.2589603E-21
  1.1230000E-02   -1.0443699E-20
  1.1265000E-02    3.9654550E-21
  1.1300000E-02    1.5982382E-20
  1.1335000E-02   -2.8543656E-22
  1.1370000E-02   -2.2482540E-20
  1.1405000E-02   -7.0439825E-21
  1.1440000E-02    2.9071486E-20
  1.1475000E-02    1.9485023E-20
  1.1510000E-02   -3.4008713E-20
  1.1545000E-02   -3.8431554E-20
  1.1580000E-02    3.4412966E-20
  1.1615000E-02    6.4805168E-20
  1.1650000E-02   -2.5970802E-20
  1.1685000E-02   -9.8329519E-20
  1.1720000E-02    2.8677354E-21
  1.1755000E-02    1.3657571E-19
  1.1790000E-02    4.2018103E-20
  1.1825000E-02   -1.7366654E-19
  1.1860000E-02   -1.1631034E-19
  1.1895000E-02    1.9887340E-19
  1.1930000E-02    2.2658325E-19
  1.1965000E-02   -1.9522180E-19
  1.2000000E-02   -3.7567783E-19
  1.2035000E-02    1.3866171E-19
  1.2070000E-02    5.5882694E-19
  1.2105000E-02    1.6757415E-21
  1.2140000E-02   -7.5846026E-19
  1.2175000E-02   -2.6113296E-19
  1.2210000E-02    9.3815175E-19
  1.2245000E-02    6.7417975E-19
  1.2280000E-02   -1.0364317E-18
  1.2315000E-02   -1.2648699E-18
  1.2350000E-02    9.6213937E-19
  1.2385000E-02    2.0324051E-18
  1.2420000E-02   -5.9357111E-19
  1.2455000E-02   -2.9315058E-18
  1.2490000E-02   -2.1522021E-19
  1.2525000E-02    3.8487345E-18
  1.2560000E-02    1.6172055E-18
  1.2595000E-02   -4.5775158E-18
  1.2630000E-02   -3.7400926E-18
  1.2665000E-02    4.7973229E-18
  1.2700000E-02    6.6358600E-18
  1.2735000E-02   -4.0652246E-18
  1.2770000E-02   -1.0210975E-17
  1.2805000E-02    1.8312277E-18
  1.2840000E-02    1.4140522E-17
  1.2875000E-02    2.5090989E-18
  1.2910000E-02   -1.7775473E-17
  1.2945000E-02   -9.5103850E-18
  1.2980000E-02    2.0061049E-17
  1.3015000E-02    1.9510350E-17
  1.3050000E-02   -1.9493702E-17
  1.3085000E-02   -3.2395443E-17
  1.3120000E-02    1.4154457E-17
  1.3155000E-02    4.7309020E-17
  1.3190000E-02   -1.8635089E-18
  1.3225000E-02   -6.2331725E-17
  1.3260000E-02   -1.9497367E-17
  1.3295000E-02    7.4191331E-17
  1.3330000E-02    5.1457132E-17
  1.3365000E-02   -7.8090151E-17
  1.3400000E-02   -9.4209228E-17
  1.3435000E-02    6.7768955E-17
  1.3470000E-02    1.4567619E-16
  1.3505000E-02   -3.5947870E-17
  1.3540000E-02   -2.0047916E-16
  1.3575000E-02   -2.4712302E-17
  1.3610000E-02    2.4898851E-16
  1.3645000E-02    1.2001673E-16
  1.3680000E-02   -2.7672495E-16
  1.3715000E-02   -2.5197245E-16
  1.3750000E-02    2.6446939E-16
  1.3785000E-02    4.1595210E-16
  1.3820000E-02   -1.8949698E-16
  1.3855000E-02   -5.9756888E-16
  1.3890000E-02    2.8348128E-17
  1.3925000E-02    7.6979069E-16
  1.3960000E-02    2.3854976E-16
  1.3995000E-02   -8.9108311E-16
  1.4030000E-02   -6.2033183E-16
  1.4065000E-02    9.0560612E-16
  1.4100000E-02    1.1075277E-15
  1.4135000E-02   -7.4662815E-16
  1.4170000E-02   -1.6631227E-15
  1.4205000E-02    3.4427906E-16
  1.4240000E-02    2.2143741E-15
  1.4275000E-02    3.6156573E-16
  1.4310000E-02   -2.6475849E-15
  1.4345000E-02   -1.4031633E-15
  1.4380000E-02    2.8086403E-15
  1.4415000E-02    2.7625389E-15
  1.4450000E-02   -2.5123895E-15
  1.4485000E-02   -4.3473403E-15
  1.4520000E-02    1.5637027E-15
  1.4555000E-02    5.9691132E-15
  1.4590000E-02    2.0795143E-16
  1.4625000E-02   -7.3299284E-15
  1.4660000E-02   -2.9005610E-15
  1.4695000E-02    8.0246173E-15
  1.4730000E-02    6.4813233E-15
  1.4765000E-02   -7.5663209E-15
  1.4800000E-02   -1.0724996E-14
  1.4835000E-02    5.4420304E-15
  1.4870000E-02    1.5159984E-14
  1.4905000E-02   -1.2018223E-15
  1.4940000E-02   -1.9037326E-14
  1.4975000E-02   -5.4198043E-15
  1.5010000E-02    2.1340485E-14
  1.5045000E-02    1.4359709E-14
  1.5080000E-02   -2.0853926E-14
  1.5115000E-02   -2.5077462E-14
  1.5150000E-02    1.6305013E-14
  1.5185000E-02    3.6430619E-14
  1.5220000E-02   -6.5853339E-15
  1.5255000E-02   -4.6610702E-14
  1.5290000E-02   -8.9560622E-15
  1.5325000E-02    5.3181475E-14
  1.5360000E-02    3.0173655E-14
  1.5395000E-02   -5.3258928E-14
  1.5430000E-02   -5.5787775E-14
  1.5465000E-02    4.3861335E-14
  1.5500000E-02    8.3117107E-14
  1.5535000E-02   -2.2435645E-14
  1.5570000E-02   -1.0796589E-13
  1.5605000E-02   -1.2467247E-14
  1.5640000E-02    1.2475646E-13
  1.5675001E-02    6.0437434E-14
  1.5710000E-02   -1.2698666E-13
  1.5745001E-02   -1.1848686E-13
  1.5780000E-02    1.0806053E-13
  1.5814999E-02    1.8052287E-13
  1.5850000E-02   -6.2484726E-14
  1.5884999E-02   -2.3719896E-13
  1.5920000E-02   -1.2652966E-14
  1.5954999E-02    2.7632540E-13
  1.5990000E-02    1.1609759E-13
  1.6024999E-02   -2.8398640E-13
  1.6060000E-02   -2.4099882E-13
  1.6094999E-02    2.4642696E-13
  1.6130000E-02    3.7398185E-13
  1.6164999E-02   -1.5264274E-13
  1.6200000E-02   -4.9508802E-13
  1.6235000E-02   -2.5550743E-15
  1.6270000E-02    5.7893030E-13
  1.6305000E-02    2.1541372E-13
  1.6340001E-02   -5.9729419E-13
  1.6375000E-02   -4.7062473E-13
  1.6410001E-02    5.2322019E-13
  1.6445000E-02    7.3991377E-13
  1.6480001E-02   -3.3632155E-13
  1.6515000E-02   -9.8253144E-13
  1.6550001E-02    2.8764304E-14
  1.6585000E-02    1.1482227E-12
  1.6620001E-02    3.8899534E-13
  1.6655000E-02   -1.1829670E-12
  1.6690001E-02   -8.8388503E-13
  1.6725000E-02    1.0373490E-12
  1.6759999E-02    1.3985958E-12
  1.6795000E-02   -6.7685121E-13
  1.6829999E-02   -1.8538612E-12
  1.6865000E-02    9.2761261E-14
  1.6899999E-02    2.1554761E-12
  1.6935000E-02    6.8815326E-13
  1.6969999E-02   -2.2062315E-12
  1.7005000E-02   -1.5974037E-12
  1.7039999E-02    1.9220738E-12
  1.7075000E-02    2.5241948E-12
  1.7109999E-02   -1.2507480E-12
  1.7145000E-02   -3.3223042E-12
  1.7180000E-02    1.9019899E-13
  1.7215000E-02    3.8253511E-12
  1.7250000E-02    1.1967582E-12
  1.7285001E-02   -3.8700354E-12
  1.7320000E-02   -2.7752902E-12
  1.7355001E-02    3.3252854E-12
  1.7390000E-02    4.3423303E-12
  1.7425001E-02   -2.1235459E-12
  1.7460000E-02   -5.6435637E-12
  1.7495001E-02    2.8901816E-13
  1.7530000E-02    6.4040049E-12
  1.7565001E-02    2.0431725E-12
  1.7600000E-02   -6.3700204E-12
  1.7635001E-02   -4.6227033E-12
  1.7670000E-02    5.3579918E-12
  1.7704999E-02    7.0991832E-12
  1.7740000E-02   -3.3022747E-12
  1.7774999E-02   -9.0585950E-12
  1.7810000E-02    2.9353633E-13
  1.7844999E-02    1.0079421E-11
  1.7880000E-02    3.4018383E-12
  1.7914999E-02   -9.8026318E-12
  1.7950000E-02   -7.3490424E-12
  1.7984999E-02    8.0058677E-12
  1.8020000E-02    1.0983383E-11
  1.8054999E-02   -4.6691219E-12
  1.8090000E-02   -1.3679613E-11
  1.8124999E-02    1.8246426E-14
  1.8160000E-02    1.4845791E-11
  1.8195000E-02    5.4662629E-12
  1.8230001E-02   -1.4029359E-11
  1.8265000E-02   -1.1083451E-11
  1.8300001E-02    1.1018517E-11
  1.8335000E-02    1.5991007E-11
  1.8370001E-02   -5.9195036E-12
  1.8405000E-02   -1.9323036E-11
  1.8440001E-02   -8.0856296E-13
  1.8475000E-02    2.0331780E-11
  1.8510001E-02    8.3748460E-12
  1.8545000E-02   -1.8531602E-11
  1.8580001E-02   -1.5739488E-11
  1.8615000E-02    1.3819323E-11
  1.8650001E-02    2.1752452E-11
  1.8685000E-02   -6.5453645E-12
  1.8719999E-02   -2.5331770E-11
  1.8755000E-02   -2.4847422E-12
  1.8789999E-02    2.5654347E-11
  1.8825000E-02    1.2088354E-11
  1.8859999E-02   -2.2326462E-11
  1.8895000E-02   -2.0860147E-11
  1.8929999E-02    1.5499902E-11
  1.8965000E-02    2.7384513E-11
  1.8999999E-02   -5.9056570E-12
  1.9035000E-02   -3.0474217E-11
  1.9069999E-02   -5.2111102E-12
  1.9105000E-02    2.9394525E-11
  1.9140000E-02    1.6253939E-11
  1.9175000E-02   -2.4030077E-11
  1.9210000E-02   -2.5516865E-11
  1.9245001E-02    1.4957438E-11
  1.9280000E-02    3.1468380E-11
  1.9315001E-02   -3.4003985E-12
  1.9350000E-02   -3.3029173E-11
  1.9385001E-02   -8.9351495E-12
  1.9420000E-02    2.9791201E-11
  1.9455001E-02    2.0126558E-11
  1.9490000E-02   -2.2131987E-11
  1.9525001E-02   -2.8359339E-11
  1.9560000E-02    1.1193657E-11
  1.9595001E-02    3.2254907E-11
  1.9630000E-02    1.2799225E-12
  1.9664999E-02   -3.1139553E-11
  1.9700000E-02   -1.3228055E-11
  1.9734999E-02    2.5198727E-11
  1.9770000E-02    2.2634164E-11
  1.9804999E-02   -1.5479102E-11
  1.9840000E-02   -2.7898676E-11
  1.9874999E-02    3.7277200E-12
  1.9910000E-02    2.8152201E-11
  1.9944999E-02    7.9107068E-12
  1.9980000E-02   -2.3444189E-11
  2.0014999E-02   -1.7287654E-11
  2.0050000E-02    1.4762632E-11
  2.0085000E-02    2.2663250E-11
  2.0120000E-02   -3.8716027E-12
  2.0155000E-02   -2.3056557E-11
  2.0190001E-02   -7.0107310E-12
  2.0225000E-02    1.8460405E-11
  2.0260001E-02    1.5637054E-11
  2.0295000E-02   -9.8710224E-12
  2.0330001E-02   -2.0177981E-11
  2.0365000E-02   -8.8217086E-13
  2.0400001E-02    1.9601421E-11
  2.0435000E-02    1.1480117E-11
  2.0470001E-02   -1.3904264E-11
  2.0505000E-02   -1.9567752E-11
  2.0540001E-02    4.1438740E-12
  2.0575000E-02    2.3228707E-11
  2.0609999E-02    7.7436295E-12
  2.0645000E-02   -2.1384545E-11
  2.0679999E-02   -1.9306902E-11
  2.0715000E-02    1.4034897E-11
  2.0749999E-02    2.8054359E-11
  2.0785000E-02   -2.2861218E-12
  2.0819999E-02   -3.1944964E-11
  2.0855000E-02   -1.1839515E-11
  2.0889999E-02    2.9795166E-11
  2.0925000E-02    2.5776282E-11
  2.0959999E-02   -2.1519779E-11
  2.0995000E-02   -3.6893062E-11
  2.1029999E-02    8.1601019E-12
  2.1065000E-02    4.2980043E-11
  2.1100000E-02    8.3021012E-12
  2.1135001E-02   -4.2647299E-11
  2.1170000E-02   -2.5300846E-11
  2.1205001E-02    3.5561040E-11
  2.1240000E-02    4.0135083E-11
  2.1275001E-02   -2.2482185E-11
  2.1310000E-02   -5.0420838E-11
  2.1345001E-02    5.1135624E-12
  2.1380000E-02    5.4462677E-11
  2.1415001E-02    1.4200002E-11
  2.1450000E-02   -5.1485646E-11
  2.1485001E-02   -3.2849782E-11
  2.1520000E-02    4.1704112E-11
  2.1555001E-02    4.8344957E-11
  2.1590000E-02   -2.6241034E-11
  2.1624999E-02   -5.8638927E-11
  2.1660000E-02    6.9347761E-12
  2.1694999E-02    6.2365425E-11
  2.1730000E-02    1.3923143E-11
  2.1764999E-02   -5.8970009E-11
  2.1800000E-02   -3.3876044E-11
  2.1834999E-02    4.8740425E-11
  2.1870000E-02    5.0580533E-11
  2.1904999E-02   -3.2754105E-11
  2.1940000E-02   -6.2057588E-11
  2.1974999E-02    1.2759382E-11
  2.2010000E-02    6.6911796E-11
  2.2045000E-02    9.0082056E-12
  2.2080000E-02   -6.4504985E-11
  2.2115000E-02   -3.0076098E-11
  2.2150001E-02    5.5053587E-11
  2.2185000E-02    4.8031020E-11
  2.2220001E-02   -3.9624779E-11
  2.2255000E-02   -6.0828287E-11
  2.2290001E-02    2.0019453E-11
  2.2325000E-02    6.7076532E-11
  2.2360001E-02    1.4666727E-12
  2.2395000E-02   -6.6243323E-11
  2.2430001E-02   -2.2390990E-11
  2.2465000E-02    5.8706776E-11
  2.2500001E-02    4.0545668E-11
  2.2535000E-02   -4.5621541E-11
  2.2569999E-02   -5.4265141E-11
  2.2605000E-02    2.8644934E-11
  2.2639999E-02    6.2592716E-11
  2.2675000E-02   -9.5954980E-12
  2.2709999E-02   -6.5276576E-11
  2.2745000E-02   -9.8827916E-12
  2.2779999E-02    6.2573217E-11
  2.2815000E-02    2.8527914E-11
  2.2849999E-02   -5.4915603E-11
  2.2885000E-02   -4.5415977E-11
  2.2919999E-02    4.2634920E-11
  2.2955000E-02    5.9698156E-11
  2.2990000E-02   -2.5907061E-11
  2.3025000E-02   -7.0294159E-11
  2.3060000E-02    4.9335700E-12
  2.3095001E-02    7.5674543E-11
  2.3130000E-02    1.9680537E-11
  2.3165001E-02   -7.3834161E-11
  2.3200000E-02   -4.6382103E-11
  2.3235001E-02    6.2656338E-11
  2.3270000E-02    7.2189886E-11
  2.3305001E-02   -4.0759892E-11
  2.3340000E-02   -9.2706530E-11
  2.3375001E-02    8.5150715E-12
  2.3410000E-02    1.0279721E-10
  2.3445001E-02    3.1227725E-11
  2.3480000E-02   -9.7737242E-11
  2.3514999E-02   -7.2898396E-11
  2.3550000E-02    7.4659078E-11
  2.3584999E-02    1.0863920E-10
  2.3620000E-02   -3.4114815E-11
  2.3654999E-02   -1.2975604E-10
  2.3690000E-02   -1.8922541E-11
  2.3724999E-02    1.2905105E-10
  2.3760000E-02    7.5396529E-11
  2.3794999E-02   -1.0311982E-10
  2.3830000E-02   -1.2380047E-10
  2.3864999E-02    5.3855729E-11
  2.3900000E-02    1.5256335E-10
  2.3934999E-02    1.0999869E-11
  2.3970000E-02   -1.5299675E-10
  2.4005000E-02   -7.8706493E-11
  2.4040001E-02    1.2230679E-10
  2.4075000E-02    1.3434501E-10
  2.4110001E-02   -6.5179750E-11
  2.4145000E-02   -1.6480955E-10
  2.4180001E-02   -7.0210821E-12
  2.4215000E-02    1.6221098E-10
  2.4250001E-02    7.8701365E-11
  2.4285000E-02   -1.2606070E-10
  2.4320001E-02   -1.3338348E-10
  2.4355000E-02    6.4274329E-11
  2.4390001E-02    1.5811334E-10
  2.4425000E-02    8.1651613E-12
  2.4460001E-02   -1.4771855E-10
  2.4495000E-02   -7.3537891E-11
  2.4529999E-02    1.0629883E-10
  2.4565000E-02    1.1649355E-10
  2.4599999E-02   -4.5609426E-11
  2.4635000E-02   -1.2763787E-10
  2.4669999E-02   -1.7763926E-11
  2.4705000E-02    1.0601980E-10
  2.4739999E-02    6.6348080E-11
  2.4775000E-02   -6.0366129E-11
  2.4809999E-02   -8.7484534E-11
  2.4845000E-02    6.5679012E-12
  2.4879999E-02    7.7869607E-11
  2.4915000E-02    3.8305671E-11
  2.4950000E-02   -4.3527976E-11
  2.4985000E-02   -6.1025088E-11
  2.5020000E-02   -2.8369839E-12
  2.5055001E-02    5.4952775E-11
  2.5090000E-02    4.4578185E-11
  2.5125001E-02   -2.2680557E-11
  2.5160000E-02   -6.5920429E-11
  2.5195001E-02   -2.3411391E-11
  2.5230000E-02    5.8705887E-11
  2.5265001E-02    6.6169785E-11
  2.5300000E-02   -2.5406562E-11
  2.5335001E-02   -9.1059764E-11
  2.5370000E-02   -2.4302371E-11
  2.5405001E-02    8.8493005E-11
  2.5440000E-02    7.5380951E-11
  2.5474999E-02   -5.6971372E-11
  2.5510000E-02   -1.1179455E-10
  2.5544999E-02    3.2418976E-12
  2.5580000E-02    1.1920766E-10
  2.5614999E-02    5.4512825E-11
  2.5650000E-02   -9.7865882E-11
  2.5684999E-02   -1.0310591E-10
  2.5720000E-02    5.0658394E-11
  2.5754999E-02    1.2639410E-10
  2.5790000E-02    5.0154694E-12
  2.5824999E-02   -1.2611077E-10
  2.5860000E-02   -6.4740768E-11
  2.5895000E-02    9.0439031E-11
  2.5930000E-02    9.7542682E-11
  2.5965000E-02   -4.9323962E-11
  2.6000001E-02   -1.1881786E-10
  2.6035000E-02   -1.0849085E-11
  2.6070001E-02    9.5610554E-11
  2.6105000E-02    3.6270428E-11
  2.6140001E-02   -8.6597042E-11
  2.6175000E-02   -8.3819791E-11
  2.6210001E-02    2.2595877E-11
  2.6245000E-02    5.6152222E-11
  2.6280001E-02   -2.6895453E-11
  2.6315000E-02   -9.0097083E-11
  2.6350001E-02   -5.1066217E-11
  2.6385000E-02    3.5404479E-12
  2.6419999E-02   -2.0035053E-11
  2.6455000E-02   -8.0325357E-11
  2.6489999E-02   -9.2659151E-11
  2.6525000E-02   -6.7111983E-11
  2.6559999E-02   -7.0508731E-11
  2.6595000E-02   -1.1086887E-10
  2.6629999E-02   -1.4124761E-10
  2.6665000E-02   -1.4791800E-10
  2.6699999E-02   -1.6463392E-10
  2.6735000E-02   -2.0865674E-10
  2.6769999E-02   -2.5636793E-10
  2.6805000E-02   -2.8674901E-10
  2.6839999E-02   -3.1445327E-10
  2.6875000E-02   -3.6891704E-10
  2.6910000E-02   -4.5490214E-10
  2.6945001E-02   -5.4367694E-10
  2.6980000E-02   -6.0933009E-10