 -4.8000002E-03    1.0000000E-24
 -4.7650002E-03    1.0000002E-24
 -4.7300002E-03    1.0000002E-24
 -4.6950001E-03    1.0000001E-24
 -4.6600001E-03    1.0000000E-24
 -4.6250001E-03    1.0000003E-24
 -4.5900000E-03    1.0000002E-24
 -4.5550000E-03    9.9999982E-25
 -4.5200000E-03    1.0000005E-24
 -4.4849999E-03    1.0000004E-24
 -4.4499999E-03    9.9999972E-25
 -4.4149999E-03    9.9999992E-25
 -4.3799998E-03    1.0000004E-24
 -4.3449998E-03    1.0000000E-24
 -4.3100002E-03    1.0000001E-24
 -4.2750002E-03    1.0000007E-24
 -4.2400002E-03    1.0000002E-24
 -4.2050001E-03    9.9999923E-25
 -4.1700001E-03    1.0000001E-24
 -4.1350001E-03    1.0000006E-24
 -4.1000000E-03    9.9999992E-25
 -4.0650000E-03    1.0000000E-24
 -4.0300000E-03    1.0000009E-24
 -3.9949999E-03    9.9999982E-25
 -3.9599999E-03    9.9999943E-25
 -3.9249999E-03    1.0000002E-24
 -3.8900001E-03    1.0000003E-24
 -3.8550000E-03    1.0000001E-24
 -3.8200000E-03    1.0000001E-24
 -3.7849999E-03    9.9999963E-25
 -3.7499999E-03    9.9999982E-25
 -3.7150001E-03    1.0000012E-24
 -3.6800001E-03    1.0000008E-24
 -3.6450000E-03    9.9999943E-25
 -3.6100000E-03    1.0000002E-24
 -3.5750000E-03    1.0000008E-24
 -3.5399999E-03    9.9999943E-25
 -3.5049999E-03    9.9999933E-25
 -3.4700001E-03    1.0000010E-24
 -3.4350001E-03    1.0000008E-24
 -3.4000000E-03    9.9999903E-25
 -3.3650000E-03    9.9999972E-25
 -3.3300000E-03    1.0000007E-24
 -3.2949999E-03    1.0000003E-24
 -3.2599999E-03    9.9999992E-25
 -3.2250001E-03    1.0000003E-24
 -3.1900001E-03    9.9999972E-25
 -3.1550000E-03    9.9999953E-25
 -3.1200000E-03    1.0000009E-24
 -3.0850000E-03    1.0000010E-24
 -3.0499999E-03    9.9999933E-25
 -3.0149999E-03    9.9999933E-25
 -2.9800001E-03    1.0000005E-24
 -2.9450001E-03    1.0000003E-24
 -2.9100000E-03    9.9999982E-25
 -2.8750000E-03    1.0000006E-24
 -2.8400000E-03    1.0000008E-24
 -2.8049999E-03    1.0000002E-24
 -2.7699999E-03    1.0000000E-24
 -2.7350001E-03    9.9999943E-25
 -2.7000001E-03    1.0000000E-24
 -2.6650000E-03    1.0000014E-24
 -2.6300000E-03    1.0000005E-24
 -2.5950000E-03    9.9999893E-25
 -2.5599999E-03    9.9999972E-25
 -2.5249999E-03    1.0000011E-24
 -2.4900001E-03    1.0000003E-24
 -2.4550001E-03    1.0000000E-24
 -2.4200000E-03    1.0000004E-24
 -2.3850000E-03    9.9999913E-25
 -2.3500000E-03    1.0000000E-24
 -2.3149999E-03    1.0000016E-24
 -2.2799999E-03    1.0000001E-24
 -2.2450001E-03    9.9999943E-25
 -2.2100001E-03    1.0000020E-24
 -2.1750000E-03    1.0000007E-24
 -2.1400000E-03    9.9999775E-25
 -2.1050000E-03    9.9999923E-25
 -2.0699999E-03    1.0000010E-24
 -2.0349999E-03    9.9999933E-25
 -2.0000001E-03    9.9999982E-25
 -1.9650001E-03    1.0000015E-24
 -1.9300000E-03    1.0000012E-24
 -1.8950000E-03    1.0000005E-24
 -1.8600000E-03    1.0000000E-24
 -1.8250000E-03    9.9999933E-25
 -1.7900000E-03    9.9999992E-25
 -1.7550000E-03    1.0000009E-24
 -1.7199999E-03    1.0000000E-24
 -1.6850000E-03    9.9999963E-25
 -1.6500000E-03    1.0000006E-24
 -1.6150000E-03    9.9999992E-25
 -1.5800000E-03    9.9999992E-25
 -1.5450000E-03    1.0000009E-24
 -1.5100000E-03    9.9999943E-25
 -1.4750001E-03    9.9999844E-25
 -1.4400000E-03    1.0000010E-24
 -1.4050000E-03    1.0000024E-24
 -1.3700000E-03    9.9999982E-25
 -1.3350000E-03    9.9999913E-25
 -1.3000000E-03    1.0000004E-24
 -1.2650000E-03    9.9999992E-25
 -1.2300001E-03    9.9999972E-25
 -1.1950000E-03    1.0000003E-24
 -1.1600000E-03    9.9999963E-25
 -1.1250000E-03    1.0000004E-24
 -1.0900000E-03    1.0000009E-24
 -1.0550000E-03    9.9999933E-25
 -1.0200000E-03    1.0000001E-24
 -9.8500005E-04    1.0000015E-24
 -9.5000002E-04    1.0000000E-24
 -9.1499998E-04    9.9999903E-25
 -8.8000001E-04    1.0000006E-24
 -8.4499997E-04    9.9999963E-25
 -8.1000000E-04    9.9999933E-25
 -7.7500002E-04    1.0000017E-24
 -7.3999999E-04    1.0000014E-24
 -7.0500001E-04    9.9999953E-25
 -6.6999998E-04    1.0000002E-24
 -6.3500000E-04    1.0000001E-24
 -6.0000003E-04    9.9999874E-25
 -5.6499999E-04    9.9999963E-25
 -5.3000002E-04    1.0000012E-24
 -4.9499999E-04    1.0000008E-24
 -4.6000001E-04    9.9999982E-25
 -4.2500001E-04    9.9999972E-25
 -3.9000000E-04    9.9999972E-25
 -3.5500000E-04    1.0000004E-24
 -3.1999999E-04    1.0000016E-24
 -2.8499999E-04    1.0000004E-24
 -2.5000001E-04    9.9999824E-25
 -2.1499999E-04    9.9999903E-25
 -1.8000000E-04    1.0000012E-24
 -1.4500000E-04    1.0000009E-24
 -1.1000000E-04    1.0000012E-24
 -7.5000004E-05    1.0000028E-24
 -3.9999999E-05    1.0000003E-24
 -4.9999999E-06    9.9999696E-25
  2.9999999E-05    9.9999923E-25
  6.5000000E-05    1.0000013E-24
  9.9999997E-05    9.9999982E-25
  1.3499999E-04    1.0000006E-24
  1.7000000E-04    1.0000010E-24
  2.0500000E-04    9.9999834E-25
  2.3999999E-04    9.9999943E-25
  2.7500000E-04    1.0000018E-24
  3.1000000E-04    9.9999923E-25
  3.4500001E-04    9.9999903E-25
  3.8000001E-04    1.0000026E-24
  4.1499999E-04    1.0000004E-24
  4.4999999E-04    9.9999775E-25
  4.8500000E-04    1.0000008E-24
  5.2000000E-04    1.0000014E-24
  5.5499998E-04    9.9999815E-25
  5.9000001E-04    1.0000008E-24
  6.2499999E-04    1.0000036E-24
  6.6000002E-04    9.9999943E-25
  6.9500000E-04    9.9999785E-25
  7.3000003E-04    1.0000013E-24
  7.6500000E-04    1.0000002E-24
  7.9999998E-04    9.9999864E-25
  8.3500001E-04    1.0000014E-24
  8.6999999E-04    1.0000007E-24
  9.0500002E-04    9.9999755E-25
  9.4000000E-04    9.9999972E-25
  9.7499997E-04    1.0000016E-24
  1.0100000E-03    9.9999884E-25
  1.0450000E-03    9.9999893E-25
  1.0800000E-03    1.0000018E-24
  1.1150000E-03    1.0000008E-24
  1.1500000E-03    9.9999972E-25
  1.1849999E-03    1.0000012E-24
  1.2200000E-03    9.9999963E-25
  1.2550000E-03    9.9999933E-25
  1.2900000E-03    1.0000021E-24
  1.3250000E-03    9.9999992E-25
  1.3600000E-03    9.9999686E-25
  1.3950000E-03    1.0000017E-24
  1.4299999E-03    1.0000034E-24
  1.4650000E-03    9.9999795E-25
  1.5000000E-03    9.9999963E-25
  1.5350000E-03    1.0000027E-24
  1.5700000E-03    9.9999726E-25
  1.6050000E-03    9.9999657E-25
  1.6400000E-03    1.0000026E-24
  1.6749999E-03    1.0000021E-24
  1.7100000E-03    9.9999963E-25
  1.7450000E-03    1.0000017E-24
  1.7800000E-03    1.0000007E-24
  1.8150000E-03    9.9999785E-25
  1.8500000E-03    1.0000004E-24
  1.8850000E-03    1.0000015E-24
  1.9200000E-03    9.9999943E-25
  1.9550000E-03    9.9999953E-25
  1.9900000E-03    9.9999943E-25
  2.0250001E-03    1.0000000E-24
  2.0600001E-03    1.0000020E-24
  2.0949999E-03    1.0000008E-24
  2.1299999E-03    9.9999884E-25
  2.1650000E-03    9.9999923E-25
  2.2000000E-03    9.9999963E-25
  2.2350000E-03    1.0000003E-24
  2.2700001E-03    1.0000030E-24
  2.3050001E-03    1.0000015E-24
  2.3399999E-03    9.9999785E-25
  2.3749999E-03    9.9999953E-25
  2.4100000E-03    1.0000014E-24
  2.4450000E-03    9.9999893E-25
  2.4800000E-03    9.9999972E-25
  2.5150001E-03    1.0000026E-24
  2.5500001E-03    1.0000001E-24
  2.5849999E-03    9.9999824E-25
  2.6199999E-03    1.0000008E-24
  2.6550000E-03    1.0000005E-24
  2.6900000E-03    9.9999775E-25
  2.7250000E-03    9.9999933E-25
  2.7600001E-03    1.0000023E-24
  2.7950001E-03    1.0000021E-24
  2.8299999E-03    1.0000016E-24
  2.8649999E-03    9.9999972E-25
  2.9000000E-03    9.9999686E-25
  2.9350000E-03    9.9999913E-25
  2.9700000E-03    1.0000024E-24
  3.0050001E-03    1.0000001E-24
  3.0400001E-03    1.0000006E-24
  3.0749999E-03    1.0000031E-24
  3.1099999E-03    9.9999844E-25
  3.1450000E-03    9.9999598E-25
  3.1800000E-03    1.0000017E-24
  3.2150000E-03    1.0000024E-24
  3.2500001E-03    9.9999746E-25
  3.2850001E-03    9.9999982E-25
  3.3199999E-03    1.0000022E-24
  3.3549999E-03    9.9999824E-25
  3.3900000E-03    9.9999903E-25
  3.4250000E-03    1.0000034E-24
  3.4600000E-03    1.0000013E-24
  3.4950001E-03    9.9999805E-25
  3.5300001E-03    9.9999972E-25
  3.5649999E-03    1.0000003E-24
  3.5999999E-03    9.9999943E-25
  3.6350000E-03    1.0000006E-24
  3.6700000E-03    1.0000010E-24
  3.7050000E-03    9.9999903E-25
  3.7400001E-03    9.9999992E-25
  3.7750001E-03    1.0000018E-24
  3.8099999E-03    1.0000013E-24
  3.8449999E-03    1.0000004E-24
  3.8800000E-03    1.0000000E-24
  3.9149998E-03    9.9999913E-25
  3.9499998E-03    9.9999953E-25
  3.9849998E-03    1.0000007E-24
  4.0199999E-03    9.9999992E-25
  4.0549999E-03    9.9999884E-25
  4.0899999E-03    1.0000000E-24
  4.1250000E-03    1.0000008E-24
  4.1600000E-03    1.0000002E-24
  4.1950000E-03    1.0000014E-24
  4.2300001E-03    1.0000018E-24
  4.2650001E-03    9.9999893E-25
  4.3000001E-03    9.9999844E-25
  4.3350002E-03    1.0000014E-24
  4.3700002E-03    1.0000016E-24
  4.4049998E-03    9.9999834E-25
  4.4399998E-03    9.9999933E-25
  4.4749998E-03    1.0000021E-24
  4.5099999E-03    9.9999972E-25
  4.5449999E-03    9.9999726E-25
  4.5799999E-03    9.9999982E-25
  4.6150000E-03    1.0000018E-24
  4.6500000E-03    1.0000001E-24
  4.6850001E-03    1.0000004E-24
  4.7200001E-03    1.0000014E-24
  4.7550001E-03    9.9999913E-25
  4.7900002E-03    9.9999864E-25
  4.8250002E-03    1.0000017E-24
  4.8600002E-03    1.0000011E-24
  4.8949998E-03    9.9999696E-25
  4.9299998E-03    9.9999755E-25
  4.9649999E-03    1.0000018E-24
  4.9999999E-03    1.0000020E-24
  5.0349999E-03    1.0000010E-24
  5.0700000E-03    1.0000031E-24
  5.1050000E-03    1.0000005E-24
  5.1400000E-03    9.9999529E-25
  5.1750001E-03    9.9999726E-25
  5.2100001E-03    1.0000016E-24
  5.2450001E-03    1.0000021E-24
  5.2800002E-03    1.0000036E-24
  5.3150002E-03    1.0000026E-24
  5.3500002E-03    9.9999706E-25
  5.3849998E-03    9.9999805E-25
  5.4199998E-03    1.0000011E-24
  5.4549999E-03    9.9999726E-25
  5.4899999E-03    9.9999913E-25
  5.5249999E-03    1.0000056E-24
  5.5600000E-03    1.0000009E-24
  5.5950000E-03    9.9999588E-25
  5.6300000E-03    1.0000007E-24
  5.6650001E-03    1.0000010E-24
  5.7000001E-03    9.9999746E-25
  5.7350001E-03    1.0000003E-24
  5.7700002E-03    1.0000008E-24
  5.8050002E-03    9.9999903E-25
  5.8400002E-03    1.0000021E-24
  5.8749998E-03    1.0000025E-24
  5.9099998E-03    9.9999913E-25
  5.9449999E-03    9.9999982E-25
  5.9799999E-03    1.0000007E-24
  6.0149999E-03    9.9999864E-25
  6.0500000E-03    9.9999884E-25
  6.0850000E-03    1.0000007E-24
  6.1200000E-03    1.0000008E-24
  6.1550001E-03    1.0000003E-24
  6.1900001E-03    1.0000003E-24
  6.2250001E-03    9.9999992E-25
  6.2600002E-03    9.9999992E-25
  6.2950002E-03    1.0000012E-24
  6.3299998E-03    1.0000006E-24
  6.3649998E-03    9.9999824E-25
  6.3999998E-03    9.9999903E-25
  6.4349999E-03    1.0000011E-24
  6.4699999E-03    1.0000002E-24
  6.5049999E-03    9.9999923E-25
  6.5400000E-03    1.0000006E-24
  6.5750000E-03    1.0000017E-24
  6.6100000E-03    1.0000005E-24
  6.6450001E-03    9.9999884E-25
  6.6800001E-03    9.9999824E-25
  6.7150001E-03    1.0000013E-24
  6.7500002E-03    1.0000039E-24
  6.7850002E-03    1.0000002E-24
  6.8199998E-03    9.9999706E-25
  6.8549998E-03    9.9999933E-25
  6.8899998E-03    1.0000006E-24
  6.9249999E-03    9.9999933E-25
  6.9599999E-03    1.0000011E-24
  6.9949999E-03    1.0000021E-24
  7.0300000E-03    9.9999884E-25
  7.0650000E-03    9.9999755E-25
  7.1000000E-03    1.0000009E-24
  7.1350001E-03    1.0000032E-24
  7.1700001E-03    1.0000014E-24
  7.2050001E-03    9.9999864E-25
  7.2400002E-03    1.0000001E-24
  7.2750002E-03    1.0000017E-24
  7.3099998E-03    9.9999874E-25
  7.3449998E-03    9.9999815E-25
  7.3799998E-03    1.0000027E-24
  7.4149999E-03    1.0000022E-24
  7.4499999E-03    9.9999815E-25
  7.4850000E-03    9.9999913E-25
  7.5200000E-03    1.0000010E-24
  7.5550000E-03    9.9999923E-25
  7.5900001E-03    9.9999854E-25
  7.6250001E-03    9.9999982E-25
  7.6600001E-03    1.0000011E-24
  7.6950002E-03    9.9999982E-25
  7.7300002E-03    9.9999864E-25
  7.7650002E-03    1.0000006E-24
  7.7999998E-03    1.0000010E-24
  7.8349998E-03    9.9999864E-25
  7.8699999E-03    9.9999933E-25
  7.9049999E-03    1.0000016E-24
  7.9399999E-03    1.0000007E-24
  7.9750000E-03    9.9999963E-25
  8.0100000E-03    1.0000007E-24
  8.0450000E-03    1.0000015E-24
  8.0800001E-03    1.0000006E-24
  8.1150001E-03    9.9999834E-25
  8.1500001E-03    9.9999824E-25
  8.1850002E-03    1.0000015E-24
  8.2200002E-03    1.0000019E-24
  8.2550002E-03    9.9999903E-25
  8.2900003E-03    9.9999844E-25
  8.3250003E-03    9.9999933E-25
  8.3600003E-03    1.0000007E-24
  8.3950004E-03    1.0000009E-24
  8.4300004E-03    9.9999815E-25
  8.4650004E-03    9.9999874E-25
  8.5000005E-03    1.0000043E-24
  8.5349996E-03    1.0000028E-24
  8.5699996E-03    9.9999755E-25
  8.6049996E-03    1.0000000E-24
  8.6399997E-03    1.0000023E-24
  8.6749997E-03    1.0000008E-24
  8.7099997E-03    1.0000002E-24
  8.7449998E-03    9.9999677E-25
  8.7799998E-03    9.9999617E-25
  8.8149998E-03    1.0000074E-24
  8.8499999E-03    1.0000079E-24
  8.8849999E-03    9.9998621E-25
  8.9199999E-03    9.9998326E-25
  8.9550000E-03    1.0000187E-24
  8.9900000E-03    1.0000311E-24
  9.0250000E-03    9.9997823E-25
  9.0600001E-03    9.9994480E-25
  9.0950001E-03    1.0000238E-24
  9.1300001E-03    1.0000995E-24
  9.1650002E-03    9.9998819E-25
  9.2000002E-03    9.9983465E-25
  9.2350002E-03    9.9997359E-25
  9.2700003E-03    1.0002569E-24
  9.3050003E-03    1.0001091E-24
  9.3400003E-03    9.9961811E-25
  9.3750004E-03    9.9972757E-25
  9.4100004E-03    1.0005410E-24
  9.4450004E-03    1.0005773E-24
  9.4799995E-03    9.9929231E-25
  9.5149996E-03    9.9889749E-25
  9.5499996E-03    1.0008250E-24
  9.5849996E-03    1.0019605E-24
  9.6199997E-03    9.9923039E-25
  9.6549997E-03    9.9670958E-25
  9.6899997E-03    1.0003133E-24
  9.7249998E-03    1.0052456E-24
  9.7599998E-03    1.0009521E-24
  9.7949998E-03    9.9206576E-25
  9.8299999E-03    9.9631722E-25
  9.8649999E-03    1.0113351E-24
  9.8999999E-03    1.0088903E-24
  9.9350000E-03    9.8489215E-25
  9.9700000E-03    9.8197583E-25
  1.0005000E-02    1.0182932E-24
  1.0040000E-02    1.0330158E-24
  1.0075000E-02    9.8116784E-25
  1.0110000E-02    9.4381804E-25
  1.0145000E-02    1.0128812E-24
  1.0180000E-02    1.0898753E-24
  1.0215000E-02    1.0061313E-24
  1.0250000E-02    8.6436249E-25
  1.0285000E-02    9.5135866E-25
  1.0320000E-02    1.1925564E-24
  1.0355000E-02    1.1301275E-24
  1.0390000E-02    7.4558128E-25
  1.0425000E-02    7.2805161E-25
  1.0460000E-02    1.3051695E-24
  1.0495000E-02    1.5011042E-24
  1.0530000E-02    6.8778756E-25
  1.0565000E-02    1.5233646E-25
  1.0600000E-02    1.2173055E-24
  1.0635000E-02    2.3379465E-24
  1.0670000E-02    1.0747094E-24
  1.0705000E-02   -9.8063763E-25
  1.0740000E-02    2.9208423E-25
  1.0775000E-02    3.7422800E-24
  1.0810000E-02    2.8848324E-24
  1.0845000E-02   -2.5079813E-24
  1.0880000E-02   -2.8671605E-24
  1.0915000E-02    5.0234584E-24
  1.0950000E-02    7.9572825E-24
  1.0985000E-02   -2.8164587E-24
  1.1020000E-02   -1.0444497E-23
  1.1055000E-02    3.1003435E-24
  1.1090000E-02    1.8493796E-23
  1.1125000E-02    3.3282330E-24
  1.1160000E-02   -2.3949124E-23
  1.1195000E-02   -1.0170411E-23
  1.1230000E-02    3.4020368E-23
  1.1265000E-02    2.7634555E-23
  1.1300000E-02   -3.8827693E-23
  1.1335000E-02   -5.0292540E-23
  1.1370000E-02    4.2794486E-23
  1.1405000E-02    8.8662191E-23
  1.1440000E-02   -3.1920196E-23
  1.1475000E-02   -1.3635476E-22
  1.1510000E-02    5.0352747E-24
  1.1545000E-02    2.0059445E-22
  1.1580000E-02    5.8745437E-23
  1.1615000E-02   -2.6791372E-22
  1.1650000E-02   -1.6799270E-22
  1.1685000E-02    3.3288342E-22
  1.1720000E-02    3.4976792E-22
  1.1755000E-02   -3.6189215E-22
  1.1790000E-02   -6.1443768E-22
  1.1825000E-02    3.2029974E-22
  1.1860000E-02    9.8145161E-22
  1.1895000E-02   -1.3580372E-22
  1.1930000E-02   -1.4369216E-21
  1.1965000E-02   -2.7237517E-22
  1.2000000E-02    1.9499638E-21
  1.2035000E-02    1.0238493E-21
  1.2070000E-02   -2.4193258E-21
  1.2105000E-02   -2.2351085E-21
  1.2140000E-02    2.6790653E-21
  1.2175000E-02    4.0281519E-21
  1.2210000E-02   -2.4382294E-21
  1.2245000E-02   -6.4557355E-21
  1.2280000E-02    1.2888789E-21
  1.2315000E-02    9.4652896E-21
  1.2350000E-02    1.3345774E-21
  1.2385000E-02   -1.2769425E-20
  1.2420000E-02   -6.1000127E-21
  1.2455000E-02    1.5751618E-20
  1.2490000E-02    1.3731371E-20
  1.2525000E-02   -1.7288542E-20
  1.2560000E-02   -2.4815947E-20
  1.2595000E-02    1.5640279E-20
  1.2630000E-02    3.9563684E-20
  1.2665000E-02   -8.3236552E-21
  1.2700000E-02   -5.7367005E-20
  1.2735000E-02   -7.8358092E-21
  1.2770000E-02    7.6282150E-20
  1.2805000E-02    3.6506172E-20
  1.2840000E-02   -9.2331044E-20
  1.2875000E-02   -8.1258966E-20
  1.2910000E-02    9.8833129E-20
  1.2945000E-02    1.4458485E-19
  1.2980000E-02   -8.5799173E-20
  1.3015000E-02   -2.2627223E-19
  1.3050000E-02    3.9774854E-20
  1.3085000E-02    3.2122130E-19
  1.3120000E-02    5.5622772E-20
  1.3155000E-02   -4.1663257E-19
  1.3190000E-02   -2.1787462E-19
  1.3225000E-02    4.8897112E-19
  1.3260000E-02    4.6203207E-19
  1.3295000E-02   -5.0114562E-19
  1.3330000E-02   -7.9487435E-19
  1.3365000E-02    4.0097815E-19
  1.3400000E-02    1.2065897E-18
  1.3435000E-02   -1.2221294E-19
  1.3470000E-02   -1.6599959E-18
  1.3505000E-02   -4.1003477E-19
  1.3540000E-02    2.0783093E-18
  1.3575000E-02    1.2675078E-18
  1.3610000E-02   -2.3332722E-18
  1.3645000E-02   -2.4986686E-18
  1.3680000E-02    2.2370864E-18
  1.3715000E-02    4.0990923E-18
  1.3750000E-02   -1.5428637E-18
  1.3785000E-02   -5.9725108E-18
  1.3820000E-02   -3.9995074E-20
  1.3855000E-02    7.8854143E-18
  1.3890000E-02    2.8084600E-18
  1.3925000E-02   -9.4215284E-18
  1.3960000E-02   -6.9995353E-18
  1.3995000E-02    9.9473945E-18
  1.4030000E-02    1.2690516E-17
  1.4065000E-02   -8.6052575E-18
  1.4100000E-02   -1.9665906E-17
  1.4135000E-02    4.3544917E-18
  1.4170000E-02    2.7259990E-17
  1.4205000E-02    3.9145334E-18
  1.4240000E-02   -3.4195570E-17
  1.4275000E-02   -1.7170996E-17
  1.4310000E-02    3.8455041E-17
  1.4345000E-02    3.5923094E-17
  1.4380000E-02   -3.7236101E-17
  1.4415000E-02   -5.9786921E-17
  1.4450000E-02    2.7060079E-17
  1.4485000E-02    8.6972132E-17
  1.4520000E-02   -4.1084303E-18
  1.4555000E-02   -1.1374958E-16
  1.4590000E-02   -3.5139903E-17
  1.4625000E-02    1.3401329E-16
  1.4660000E-02    9.2923114E-17
  1.4695000E-02   -1.3909888E-16
  1.4730000E-02   -1.6886608E-16
  1.4765000E-02    1.1806449E-16
  1.4800000E-02    2.5839076E-16
  1.4835000E-02   -5.8663338E-17
  1.4870000E-02   -3.5106742E-16
  1.4905000E-02   -5.0782586E-17
  1.4940000E-02    4.2924554E-16
  1.4975000E-02    2.1847471E-16
  1.5010000E-02   -4.6744387E-16
  1.5045000E-02   -4.4521730E-16
  1.5080000E-02    4.3309951E-16
  1.5115000E-02    7.1975629E-16
  1.5150000E-02   -2.8932327E-16
  1.5185000E-02   -1.0139733E-15
  1.5220000E-02    2.3936816E-19
  1.5255000E-02    1.2789159E-15
  1.5290000E-02    4.6075977E-16
  1.5325000E-02   -1.4430308E-15
  1.5360000E-02   -1.0999768E-15
  1.5395000E-02    1.4142572E-15
  1.5430000E-02    1.8904145E-15
  1.5465000E-02   -1.0877116E-15
  1.5500000E-02   -2.7585597E-15
  1.5535000E-02    3.6044524E-16
  1.5570000E-02    3.5736892E-15
  1.5605000E-02    8.4602080E-16
  1.5640000E-02   -4.1434082E-15
  1.5675001E-02   -2.5559526E-15
  1.5710000E-02    4.2197716E-15
  1.5745001E-02    4.7049737E-15
  1.5780000E-02   -3.5203784E-15
  1.5814999E-02   -7.1057831E-15
  1.5850000E-02    1.7678770E-15
  1.5884999E-02    9.4213942E-15
  1.5920000E-02    1.2508201E-15
  1.5954999E-02   -1.1155520E-14
  1.5990000E-02   -5.6079570E-15
  1.6024999E-02    1.1670921E-14
  1.6060000E-02    1.1148212E-14
  1.6094999E-02   -1.0246109E-14
  1.6130000E-02   -1.7404962E-14
  1.6164999E-02    6.1777332E-15
  1.6200000E-02    2.3538390E-14
  1.6235000E-02    1.0700213E-15
  1.6270000E-02   -2.8319217E-14
  1.6305000E-02   -1.1677127E-14
  1.6340001E-02    3.0183419E-14
  1.6375000E-02    2.5260674E-14
  1.6410001E-02   -2.7380697E-14
  1.6445000E-02   -4.0682677E-14
  1.6480001E-02    1.8230497E-14
  1.6515000E-02    5.5919394E-14
  1.6550001E-02   -1.4832643E-15
  1.6585000E-02   -6.8047130E-14
  1.6620001E-02   -2.3238540E-14
  1.6655000E-02    7.3400528E-14
  1.6690001E-02    5.4972865E-14
  1.6725000E-02   -6.7949003E-14
  1.6759999E-02   -9.1006934E-14
  1.6795000E-02    4.7911883E-14
  1.6829999E-02    1.2663006E-13
  1.6865000E-02   -1.0593002E-14
  1.6899999E-02   -1.5517172E-13
  1.6935000E-02   -4.4638626E-14
  1.6969999E-02    1.6843878E-13
  1.7005000E-02    1.1535552E-13
  1.7039999E-02   -1.5763271E-13
  1.7075000E-02   -1.9525829E-13
  1.7109999E-02    1.1476434E-13
  1.7145000E-02    2.7377864E-13
  1.7180000E-02   -3.4488244E-14
  1.7215000E-02   -3.3634483E-13
  1.7250000E-02   -8.3836163E-14
  1.7285001E-02    3.6552255E-13
  1.7320000E-02    2.3417265E-13
  1.7355001E-02   -3.4315061E-13
  1.7390000E-02   -4.0234764E-13
  1.7425001E-02    2.5343800E-13
  1.7460000E-02    5.6558138E-13
  1.7495001E-02   -8.6782930E-14
  1.7530000E-02   -6.9347880E-13
  1.7565001E-02   -1.5615897E-13
  1.7600000E-02    7.5082529E-13
  1.7635001E-02    4.6085547E-13
  1.7670000E-02   -7.0230703E-13
  1.7704999E-02   -7.9659098E-13
  1.7740000E-02    5.1893185E-13
  1.7774999E-02    1.1163801E-12
  1.7810000E-02   -1.8551393E-13
  1.7844999E-02   -1.3598969E-12
  1.7880000E-02   -2.9184858E-13
  1.7914999E-02    1.4598873E-12
  1.7950000E-02    8.7973823E-13
  1.7984999E-02   -1.3520128E-12
  1.8020000E-02   -1.5144515E-12
  1.8054999E-02    9.8737793E-13
  1.8090000E-02    2.1036790E-12
  1.8124999E-02   -3.4623327E-13
  1.8160000E-02   -2.5339934E-12
  1.8195000E-02   -5.4937934E-13
  1.8230001E-02    2.6845585E-12
  1.8265000E-02    1.6267547E-12
  1.8300001E-02   -2.4463797E-12
  1.8335000E-02   -2.7602525E-12
  1.8370001E-02    1.7451487E-12
  1.8405000E-02    3.7780148E-12
  1.8440001E-02   -5.6443332E-13
  1.8475000E-02   -4.4790604E-12
  1.8510001E-02   -1.0350140E-12
  1.8545000E-02    4.6604959E-12
  1.8580001E-02    2.9045744E-12
  1.8615000E-02   -4.1525967E-12
  1.8650001E-02   -4.8100369E-12
  1.8685000E-02    2.8573550E-12
  1.8719999E-02    6.4499647E-12
  1.8755000E-02   -7.8427255E-13
  1.8789999E-02   -7.4909315E-12
  1.8825000E-02   -1.9240098E-12
  1.8859999E-02    7.6174640E-12
  1.8895000E-02    4.9835609E-12
  1.8929999E-02   -6.5911191E-12
  1.8965000E-02   -7.9843415E-12
  1.8999999E-02    4.3099821E-12
  1.9035000E-02    1.0431539E-11
  1.9069999E-02   -8.5774541E-13
  1.9105000E-02   -1.1811596E-11
  1.9140000E-02   -3.4691670E-12
  1.9175000E-02    1.1676425E-11
  1.9210000E-02    8.1663461E-12
  1.9245001E-02   -9.7343158E-12
  1.9280000E-02   -1.2564177E-11
  1.9315001E-02    5.9322876E-12
  1.9350000E-02    1.5908851E-11
  1.9385001E-02   -5.1293144E-13
  1.9420000E-02   -1.7474661E-11
  1.9455001E-02   -5.9699268E-12
  1.9490000E-02    1.6693251E-11
  1.9525001E-02    1.2687647E-11
  1.9560000E-02   -1.3279293E-11
  1.9595001E-02   -1.8628729E-11
  1.9630000E-02    7.3289552E-12
  1.9664999E-02    2.2739486E-11
  1.9700000E-02    6.3204140E-13
  1.9734999E-02   -2.4096400E-11
  1.9770000E-02   -9.6682246E-12
  1.9804999E-02    2.2083897E-11
  1.9840000E-02    1.8530054E-11
  1.9874999E-02   -1.6545725E-11
  1.9910000E-02   -2.5820117E-11
  1.9944999E-02    7.8777792E-12
  1.9980000E-02    3.0210189E-11
  2.0014999E-02    2.9634975E-12
  2.0050000E-02   -3.0676840E-11
  2.0085000E-02   -1.4551419E-11
  2.0120000E-02    2.6714525E-11
  2.0155000E-02    2.5174873E-11
  2.0190001E-02   -1.8483711E-11
  2.0225000E-02   -3.3098212E-11
  2.0260001E-02    6.8578966E-12
  2.0295000E-02    3.6856261E-11
  2.0330001E-02    6.6517716E-12
  2.0365000E-02   -3.5533753E-11
  2.0400001E-02   -2.0094737E-11
  2.0435000E-02    2.8974894E-11
  2.0470001E-02    3.1378979E-11
  2.0505000E-02   -1.7876206E-11
  2.0540001E-02   -3.8622831E-11
  2.0575000E-02    3.7329259E-12
  2.0609999E-02    4.0499971E-11
  2.0645000E-02    1.1365201E-11
  2.0679999E-02   -3.6511048E-11
  2.0715000E-02   -2.5063677E-11
  2.0749999E-02    2.7123841E-11
  2.0785000E-02    3.5146563E-11
  2.0819999E-02   -1.3743805E-11
  2.0855000E-02   -3.9941484E-11
  2.0889999E-02   -1.4926738E-12
  2.0925000E-02    3.8648314E-11
  2.0959999E-02    1.6075381E-11
  2.0995000E-02   -3.1521986E-11
  2.1029999E-02   -2.7568567E-11
  2.1065000E-02    1.9863859E-11
  2.1100000E-02    3.4068335E-11
  2.1135001E-02   -5.8110613E-12
  2.1170000E-02   -3.4579492E-11
  2.1205001E-02   -8.0465452E-12
  2.1240000E-02    2.9232353E-11
  2.1275001E-02    1.9155720E-11
  2.1310000E-02   -1.9287060E-11
  2.1345001E-02   -2.5503091E-11
  2.1380000E-02    6.9132738E-12
  2.1415001E-02    2.6032060E-11
  2.1450000E-02    5.2223868E-12
  2.1485001E-02   -2.0884629E-11
  2.1520000E-02   -1.4487390E-11
  2.1555001E-02    1.1410249E-11
  2.1590000E-02    1.8831560E-11
  2.1624999E-02    7.2220997E-14
  2.1660000E-02   -1.7241793E-11
  2.1694999E-02   -1.0723926E-11
  2.1730000E-02    1.0005901E-11
  2.1764999E-02    1.7766583E-11
  2.1800000E-02    1.2782120E-12
  2.1834999E-02   -1.9083912E-11
  2.1870000E-02   -1.3964507E-11
  2.1904999E-02    1.3723065E-11
  2.1940000E-02    2.4854906E-11
  2.1974999E-02   -2.1889255E-12
  2.2010000E-02   -3.0844306E-11
  2.2045000E-02   -1.3541383E-11
  2.2080000E-02    2.9594851E-11
  2.2115000E-02    3.0305772E-11
  2.2150001E-02   -2.0106864E-11
  2.2185000E-02   -4.4310697E-11
  2.2220001E-02    3.0652347E-12
  2.2255000E-02    5.1861550E-11
  2.2290001E-02    1.9124955E-11
  2.2325000E-02   -5.0140239E-11
  2.2360001E-02   -4.2647073E-11
  2.2395000E-02    3.7880317E-11
  2.2430001E-02    6.2894988E-11
  2.2465000E-02   -1.5797181E-11
  2.2500001E-02   -7.5315192E-11
  2.2535000E-02   -1.3334441E-11
  2.2569999E-02    7.6323288E-11
  2.2605000E-02    4.5005874E-11
  2.2639999E-02   -6.4121111E-11
  2.2675000E-02   -7.3678397E-11
  2.2709999E-02    3.9241121E-11
  2.2745000E-02    9.3764017E-11
  2.2779999E-02   -4.6800883E-12
  2.2815000E-02   -1.0071384E-10
  2.2849999E-02   -3.4447774E-11
  2.2885000E-02    9.2002163E-11
  2.2919999E-02    7.1715196E-11
  2.2955000E-02   -6.7793576E-11
  2.2990000E-02   -1.0052380E-10
  2.3025000E-02    3.1122813E-11
  2.3060000E-02    1.1537574E-10
  2.3095001E-02    1.2497348E-11
  2.3130000E-02   -1.1301582E-10
  2.3165001E-02   -5.6005842E-11
  2.3200000E-02    9.3185730E-11
  2.3235001E-02    9.2100862E-11
  2.3270000E-02   -5.8796773E-11
  2.3305001E-02   -1.1466361E-10
  2.3340000E-02    1.5444770E-11
  2.3375001E-02    1.1998834E-10
  2.3410000E-02    2.9662470E-11
  2.3445001E-02   -1.0752833E-10
  2.3480000E-02   -6.9146910E-11
  2.3514999E-02    7.9962564E-11
  2.3550000E-02    9.6943537E-11
  2.3584999E-02   -4.2548447E-11
  2.3620000E-02   -1.0946807E-10
  2.3654999E-02    1.9129338E-12
  2.3690000E-02    1.0618516E-10
  2.3724999E-02    3.5420802E-11
  2.3760000E-02   -8.9439553E-11
  2.3794999E-02   -6.4394767E-11
  2.3830000E-02    6.3603012E-11
  2.3864999E-02    8.2306099E-11
  2.3900000E-02   -3.3786602E-11
  2.3934999E-02   -8.8987213E-11
  2.3970000E-02    4.5111840E-12
  2.4005000E-02    8.6262657E-11
  2.4040001E-02    2.1259987E-11
  2.4075000E-02   -7.6896878E-11
  2.4110001E-02   -4.2447039E-11
  2.4145000E-02    6.3400070E-11
  2.4180001E-02    5.9456613E-11
  2.4215000E-02   -4.7112377E-11
  2.4250001E-02   -7.3210757E-11
  2.4285000E-02    2.7930717E-11
  2.4320001E-02    8.3987706E-11
  2.4355000E-02   -4.8223496E-12
  2.4390001E-02   -9.0578073E-11
  2.4425000E-02   -2.3050574E-11
  2.4460001E-02    9.0156362E-11
  2.4495000E-02    5.5022802E-11
  2.4529999E-02   -7.9015322E-11
  2.4565000E-02   -8.7940946E-11
  2.4599999E-02    5.4045244E-11
  2.4635000E-02    1.1599301E-10
  2.4669999E-02   -1.4548576E-11
  2.4705000E-02   -1.3167394E-10
  2.4739999E-02   -3.6299790E-11
  2.4775000E-02    1.2778716E-10
  2.4809999E-02    9.1041202E-11
  2.4845000E-02   -9.9904703E-11
  2.4879999E-02   -1.3890278E-10
  2.4915000E-02    4.8522204E-11
  2.4950000E-02    1.6805762E-10
  2.4985000E-02    1.9799776E-11
  2.5020000E-02   -1.6876685E-10
  2.5055001E-02   -9.2917264E-11
  2.5090000E-02    1.3659138E-10
  2.5125001E-02    1.5546149E-10
  2.5160000E-02   -7.4528703E-11
  2.5195001E-02   -1.9255979E-10
  2.5230000E-02   -6.7944960E-12
  2.5265001E-02    1.9381868E-10
  2.5300000E-02    9.1010734E-11
  2.5335001E-02   -1.5651333E-10
  2.5370000E-02   -1.5963869E-10
  2.5405001E-02    8.7108439E-11
  2.5440000E-02    1.9678802E-10
  2.5474999E-02   -3.1407740E-13
  2.5510000E-02   -1.9362957E-10
  2.5544999E-02   -8.4422073E-11
  2.5580000E-02    1.5100964E-10
  2.5614999E-02    1.4786836E-10
  2.5650000E-02   -7.9431420E-11
  2.5684999E-02   -1.7590580E-10
  2.5720000E-02   -3.3741866E-12
  2.5754999E-02    1.6334351E-10
  2.5790000E-02    7.6906245E-11
  2.5824999E-02   -1.1561935E-10
  2.5860000E-02   -1.2357980E-10
  2.5895000E-02    4.7303127E-11
  2.5930000E-02    1.3366881E-10
  2.5965000E-02    2.2260874E-11
  2.6000001E-02   -1.0762105E-10
  2.6035000E-02   -7.4282865E-11
  2.6070001E-02    5.5609770E-11
  2.6105000E-02    9.5432530E-11
  2.6140001E-02    5.1475486E-12
  2.6175000E-02   -8.1714004E-11
  2.6210001E-02   -5.5352129E-11
  2.6245000E-02    3.9803865E-11
  2.6280001E-02    7.9744288E-11
  2.6315000E-02    1.5472606E-11
  2.6350001E-02   -7.1465930E-11
  2.6385000E-02   -6.6058783E-11
  2.6419999E-02    3.3241885E-11
  2.6455000E-02    9.5473462E-11
  2.6489999E-02    2.3487884E-11
  2.6525000E-02   -9.3193876E-11
  2.6559999E-02   -8.1331393E-11
  2.6595000E-02    5.8323762E-11
  2.6629999E-02    1.2246083E-10
  2.6665000E-02    1.4114087E-13
  2.6699999E-02   -1.3449601E-10
  2.6735000E-02   -6.7144283E-11
  2.6769999E-02    1.1309959E-10
  2.6805000E-02    1.2601221E-10
  2.6839999E-02   -6.1962331E-11
  2.6875000E-02   -1.6173851E-10
  2.6910000E-02   -7.5507309E-12
  2.6945001E-02    1.6503450E-10
  2.6980000E-02    7.9016113E-11