 -4.8000002E-03    1.0000000E-24
 -4.7650002E-03    1.0000002E-24
 -4.7300002E-03    1.0000001E-24
 -4.6950001E-03    9.9999992E-25
 -4.6600001E-03    1.0000001E-24
 -4.6250001E-03    1.0000002E-24
 -4.5900000E-03    1.0000000E-24
 -4.5550000E-03    1.0000001E-24
 -4.5200000E-03    1.0000003E-24
 -4.4849999E-03    9.9999992E-25
 -4.4499999E-03    9.9999982E-25
 -4.4149999E-03    1.0000003E-24
 -4.3799998E-03    1.0000003E-24
 -4.3449998E-03    9.9999972E-25
 -4.3100002E-03    1.0000000E-24
 -4.2750002E-03    1.0000004E-24
 -4.2400002E-03    1.0000003E-24
 -4.2050001E-03    9.9999992E-25
 -4.1700001E-03    1.0000002E-24
 -4.1350001E-03    1.0000002E-24
 -4.1000000E-03    9.9999982E-25
 -4.0650000E-03    9.9999963E-25
 -4.0300000E-03    9.9999982E-25
 -3.9949999E-03    1.0000001E-24
 -3.9599999E-03    1.0000001E-24
 -3.9249999E-03    1.0000001E-24
 -3.8900001E-03    1.0000003E-24
 -3.8550000E-03    1.0000001E-24
 -3.8200000E-03    9.9999972E-25
 -3.7849999E-03    9.9999982E-25
 -3.7499999E-03    1.0000006E-24
 -3.7150001E-03    1.0000006E-24
 -3.6800001E-03    9.9999972E-25
 -3.6450000E-03    9.9999972E-25
 -3.6100000E-03    1.0000005E-24
 -3.5750000E-03    1.0000002E-24
 -3.5399999E-03    9.9999903E-25
 -3.5049999E-03    9.9999953E-25
 -3.4700001E-03    1.0000007E-24
 -3.4350001E-03    1.0000005E-24
 -3.4000000E-03    9.9999992E-25
 -3.3650000E-03    1.0000000E-24
 -3.3300000E-03    1.0000003E-24
 -3.2949999E-03    1.0000000E-24
 -3.2599999E-03    1.0000000E-24
 -3.2250001E-03    1.0000003E-24
 -3.1900001E-03    9.9999963E-25
 -3.1550000E-03    9.9999923E-25
 -3.1200000E-03    1.0000005E-24
 -3.0850000E-03    1.0000008E-24
 -3.0499999E-03    9.9999933E-25
 -3.0149999E-03    9.9999963E-25
 -2.9800001E-03    1.0000012E-24
 -2.9450001E-03    1.0000006E-24
 -2.9100000E-03    9.9999884E-25
 -2.8750000E-03    9.9999972E-25
 -2.8400000E-03    1.0000014E-24
 -2.8049999E-03    1.0000005E-24
 -2.7699999E-03    9.9999884E-25
 -2.7350001E-03    9.9999923E-25
 -2.7000001E-03    1.0000006E-24
 -2.6650000E-03    1.0000007E-24
 -2.6300000E-03    1.0000001E-24
 -2.5950000E-03    1.0000001E-24
 -2.5599999E-03    1.0000004E-24
 -2.5249999E-03    1.0000002E-24
 -2.4900001E-03    9.9999982E-25
 -2.4550001E-03    9.9999953E-25
 -2.4200000E-03    9.9999933E-25
 -2.3850000E-03    1.0000000E-24
 -2.3500000E-03    1.0000014E-24
 -2.3149999E-03    1.0000006E-24
 -2.2799999E-03    9.9999864E-25
 -2.2450001E-03    9.9999913E-25
 -2.2100001E-03    1.0000009E-24
 -2.1750000E-03    1.0000003E-24
 -2.1400000E-03    9.9999893E-25
 -2.1050000E-03    1.0000005E-24
 -2.0699999E-03    1.0000022E-24
 -2.0349999E-03    1.0000005E-24
 -2.0000001E-03    9.9999844E-25
 -1.9650001E-03    9.9999893E-25
 -1.9300000E-03    1.0000005E-24
 -1.8950000E-03    1.0000003E-24
 -1.8600000E-03    9.9999953E-25
 -1.8250000E-03    1.0000000E-24
 -1.7900000E-03    1.0000011E-24
 -1.7550000E-03    1.0000000E-24
 -1.7199999E-03    9.9999884E-25
 -1.6850000E-03    1.0000000E-24
 -1.6500000E-03    1.0000007E-24
 -1.6150000E-03    9.9999992E-25
 -1.5800000E-03    1.0000002E-24
 -1.5450000E-03    1.0000010E-24
 -1.5100000E-03    1.0000001E-24
 -1.4750001E-03    9.9999913E-25
 -1.4400000E-03    1.0000003E-24
 -1.4050000E-03    1.0000005E-24
 -1.3700000E-03    9.9999893E-25
 -1.3350000E-03    9.9999982E-25
 -1.3000000E-03    1.0000016E-24
 -1.2650000E-03    1.0000003E-24
 -1.2300001E-03    9.9999844E-25
 -1.1950000E-03    9.9999943E-25
 -1.1600000E-03    1.0000008E-24
 -1.1250000E-03    9.9999972E-25
 -1.0900000E-03    9.9999923E-25
 -1.0550000E-03    1.0000006E-24
 -1.0200000E-03    1.0000018E-24
 -9.8500005E-04    1.0000006E-24
 -9.5000002E-04    9.9999953E-25
 -9.1499998E-04    1.0000002E-24
 -8.8000001E-04    1.0000004E-24
 -8.4499997E-04    9.9999982E-25
 -8.1000000E-04    1.0000000E-24
 -7.7500002E-04    1.0000000E-24
 -7.3999999E-04    9.9999953E-25
 -7.0500001E-04    1.0000003E-24
 -6.6999998E-04    1.0000010E-24
 -6.3500000E-04    9.9999943E-25
 -6.0000003E-04    9.9999805E-25
 -5.6499999E-04    1.0000002E-24
 -5.3000002E-04    1.0000015E-24
 -4.9499999E-04    1.0000000E-24
 -4.6000001E-04    9.9999963E-25
 -4.2500001E-04    1.0000011E-24
 -3.9000000E-04    1.0000007E-24
 -3.5500000E-04    9.9999943E-25
 -3.1999999E-04    9.9999963E-25
 -2.8499999E-04    1.0000000E-24
 -2.5000001E-04    9.9999982E-25
 -2.1499999E-04    1.0000004E-24
 -1.8000000E-04    1.0000006E-24
 -1.4500000E-04    1.0000001E-24
 -1.1000000E-04    1.0000006E-24
 -7.5000004E-05    1.0000010E-24
 -3.9999999E-05    9.9999923E-25
 -4.9999999E-06    9.9999775E-25
  2.9999999E-05    9.9999913E-25
  6.5000000E-05    1.0000012E-24
  9.9999997E-05    1.0000016E-24
  1.3499999E-04    1.0000000E-24
  1.7000000E-04    9.9999864E-25
  2.0500000E-04    1.0000001E-24
  2.3999999E-04    1.0000016E-24
  2.7500000E-04    1.0000001E-24
  3.1000000E-04    9.9999953E-25
  3.4500001E-04    1.0000010E-24
  3.8000001E-04    1.0000006E-24
  4.1499999E-04    9.9999864E-25
  4.4999999E-04    9.9999943E-25
  4.8500000E-04    1.0000010E-24
  5.2000000E-04    1.0000001E-24
  5.5499998E-04    9.9999963E-25
  5.9000001E-04    1.0000009E-24
  6.2499999E-04    1.0000004E-24
  6.6000002E-04    9.9999933E-25
  6.9500000E-04    1.0000006E-24
  7.3000003E-04    1.0000015E-24
  7.6500000E-04    1.0000000E-24
  7.9999998E-04    9.9999893E-25
  8.3500001E-04    9.9999953E-25
  8.6999999E-04    1.0000007E-24
  9.0500002E-04    1.0000009E-24
  9.4000000E-04    9.9999943E-25
  9.7499997E-04    9.9999874E-25
  1.0100000E-03    9.9999992E-25
  1.0450000E-03    1.0000003E-24
  1.0800000E-03    1.0000000E-24
  1.1150000E-03    1.0000005E-24
  1.1500000E-03    1.0000009E-24
  1.1849999E-03    1.0000000E-24
  1.2200000E-03    9.9999972E-25
  1.2550000E-03    9.9999953E-25
  1.2900000E-03    9.9999884E-25
  1.3250000E-03    1.0000001E-24
  1.3600000E-03    1.0000020E-24
  1.3950000E-03    1.0000007E-24
  1.4299999E-03    9.9999933E-25
  1.4650000E-03    1.0000007E-24
  1.5000000E-03    1.0000004E-24
  1.5350000E-03    9.9999844E-25
  1.5700000E-03    1.0000003E-24
  1.6050000E-03    1.0000017E-24
  1.6400000E-03    9.9999903E-25
  1.6749999E-03    9.9999864E-25
  1.7100000E-03    1.0000015E-24
  1.7450000E-03    1.0000007E-24
  1.7800000E-03    9.9999834E-25
  1.8150000E-03    1.0000000E-24
  1.8500000E-03    1.0000015E-24
  1.8850000E-03    9.9999953E-25
  1.9200000E-03    9.9999874E-25
  1.9550000E-03    9.9999992E-25
  1.9900000E-03    1.0000005E-24
  2.0250001E-03    1.0000005E-24
  2.0600001E-03    1.0000007E-24
  2.0949999E-03    1.0000001E-24
  2.1299999E-03    9.9999953E-25
  2.1650000E-03    1.0000003E-24
  2.2000000E-03    1.0000012E-24
  2.2350000E-03    1.0000002E-24
  2.2700001E-03    9.9999913E-25
  2.3050001E-03    9.9999943E-25
  2.3399999E-03    1.0000003E-24
  2.3749999E-03    9.9999953E-25
  2.4100000E-03    9.9999893E-25
  2.4450000E-03    1.0000009E-24
  2.4800000E-03    1.0000015E-24
  2.5150001E-03    9.9999963E-25
  2.5500001E-03    9.9999982E-25
  2.5849999E-03    1.0000016E-24
  2.6199999E-03    9.9999933E-25
  2.6550000E-03    9.9999726E-25
  2.6900000E-03    1.0000001E-24
  2.7250000E-03    1.0000014E-24
  2.7600001E-03    9.9999953E-25
  2.7950001E-03    1.0000001E-24
  2.8299999E-03    1.0000018E-24
  2.8649999E-03    9.9999982E-25
  2.9000000E-03    9.9999834E-25
  2.9350000E-03    9.9999972E-25
  2.9700000E-03    1.0000008E-24
  3.0050001E-03    1.0000009E-24
  3.0400001E-03    1.0000011E-24
  3.0749999E-03    1.0000002E-24
  3.1099999E-03    9.9999943E-25
  3.1450000E-03    1.0000004E-24
  3.1800000E-03    9.9999972E-25
  3.2150000E-03    9.9999785E-25
  3.2500001E-03    9.9999923E-25
  3.2850001E-03    1.0000020E-24
  3.3199999E-03    1.0000013E-24
  3.3549999E-03    9.9999913E-25
  3.3900000E-03    1.0000006E-24
  3.4250000E-03    1.0000024E-24
  3.4600000E-03    9.9999923E-25
  3.4950001E-03    9.9999667E-25
  3.5300001E-03    1.0000000E-24
  3.5649999E-03    1.0000027E-24
  3.5999999E-03    1.0000000E-24
  3.6350000E-03    9.9999874E-25
  3.6700000E-03    1.0000016E-24
  3.7050000E-03    1.0000020E-24
  3.7400001E-03    9.9999893E-25
  3.7750001E-03    9.9999815E-25
  3.8099999E-03    1.0000005E-24
  3.8449999E-03    1.0000013E-24
  3.8800000E-03    9.9999982E-25
  3.9149998E-03    9.9999893E-25
  3.9499998E-03    9.9999953E-25
  3.9849998E-03    9.9999884E-25
  4.0199999E-03    9.9999765E-25
  4.0549999E-03    9.9999992E-25
  4.0899999E-03    1.0000031E-24
  4.1250000E-03    1.0000016E-24
  4.1600000E-03    9.9999854E-25
  4.1950000E-03    9.9999963E-25
  4.2300001E-03    1.0000012E-24
  4.2650001E-03    9.9999943E-25
  4.3000001E-03    9.9999903E-25
  4.3350002E-03    1.0000018E-24
  4.3700002E-03    1.0000020E-24
  4.4049998E-03    9.9999933E-25
  4.4399998E-03    9.9999933E-25
  4.4749998E-03    1.0000018E-24
  4.5099999E-03    1.0000000E-24
  4.5449999E-03    9.9999706E-25
  4.5799999E-03    9.9999972E-25
  4.6150000E-03    1.0000021E-24
  4.6500000E-03    9.9999992E-25
  4.6850001E-03    9.9999963E-25
  4.7200001E-03    1.0000022E-24
  4.7550001E-03    1.0000004E-24
  4.7900002E-03    9.9999686E-25
  4.8250002E-03    9.9999864E-25
  4.8600002E-03    1.0000021E-24
  4.8949998E-03    1.0000012E-24
  4.9299998E-03    9.9999943E-25
  4.9649999E-03    1.0000008E-24
  4.9999999E-03    1.0000015E-24
  5.0349999E-03    9.9999972E-25
  5.0700000E-03    9.9999884E-25
  5.1050000E-03    9.9999972E-25
  5.1400000E-03    1.0000006E-24
  5.1750001E-03    1.0000015E-24
  5.2100001E-03    1.0000017E-24
  5.2450001E-03    9.9999844E-25
  5.2800002E-03    9.9999686E-25
  5.3150002E-03    1.0000007E-24
  5.3500002E-03    1.0000021E-24
  5.3849998E-03    9.9999785E-25
  5.4199998E-03    1.0000004E-24
  5.4549999E-03    1.0000069E-24
  5.4899999E-03    1.0000013E-24
  5.5249999E-03    9.9999243E-25
  5.5600000E-03    9.9999893E-25
  5.5950000E-03    1.0000110E-24
  5.6300000E-03    9.9999893E-25
  5.6650001E-03    9.9999085E-25
  5.7000001E-03    9.9999844E-25
  5.7350001E-03    1.0000056E-24
  5.7700002E-03    1.0000084E-24
  5.8050002E-03    9.9998355E-25
  5.8400002E-03    9.9996531E-25
  5.8749998E-03    1.0000163E-24
  5.9099998E-03    1.0000533E-24
  5.9449999E-03    9.9999538E-25
  5.9799999E-03    9.9988031E-25
  6.0149999E-03    9.9995890E-25
  6.0500000E-03    1.0000621E-24
  6.0850000E-03    9.9999469E-25
  6.1200000E-03    9.9982174E-25
  6.1550001E-03    9.9994362E-25
  6.1900001E-03    1.0002282E-24
  6.2250001E-03    1.0001818E-24
  6.2600002E-03    1.0000178E-24
  6.2950002E-03    9.9981444E-25
  6.3299998E-03    1.0002527E-24
  6.3649998E-03    1.0007289E-24
  6.3999998E-03    9.9935858E-25
  6.4349999E-03    9.9824056E-25
  6.4699999E-03    1.0007581E-24
  6.5049999E-03    1.0027691E-24
  6.5400000E-03    9.9842979E-25
  6.5750000E-03    9.9620984E-25
  6.6100000E-03    1.0025521E-24
  6.6450001E-03    1.0056807E-24
  6.6800001E-03    9.9751057E-25
  6.7150001E-03    9.9162232E-25
  6.7500002E-03    9.9709928E-25
  6.7850002E-03    1.0061000E-24
  6.8199998E-03    1.0053287E-24
  6.8549998E-03    9.9007753E-25
  6.8899998E-03    9.9411689E-25
  6.9249999E-03    1.0151961E-24
  6.9599999E-03    1.0139180E-24
  6.9949999E-03    9.8078623E-25
  7.0300000E-03    9.7542158E-25
  7.0650000E-03    1.0245638E-24
  7.1000000E-03    1.0500524E-24
  7.1350001E-03    9.9473950E-25
  7.1700001E-03    9.2094689E-25
  7.2050001E-03    1.0031569E-24
  7.2400002E-03    1.0901073E-24
  7.2750002E-03    9.9495299E-25
  7.3099998E-03    7.4133455E-25
  7.3449998E-03    8.0980487E-25
  7.3799998E-03    1.1380936E-24
  7.4149999E-03    1.2026401E-24
  7.4499999E-03    6.7916649E-25
  7.4850000E-03    3.9369585E-25
  7.5200000E-03    1.2303371E-24
  7.5550000E-03    1.6540124E-24
  7.5900001E-03    5.6668740E-25
  7.6250001E-03   -1.3799013E-25
  7.6600001E-03    1.2539498E-24
  7.6950002E-03    2.6133100E-24
  7.7300002E-03    2.0405579E-24
  7.7650002E-03    1.2545861E-26
  7.7999998E-03   -7.0581402E-25
  7.8349998E-03    3.5988722E-24
  7.8699999E-03    3.5678475E-24
  7.9049999E-03   -2.4423339E-24
  7.9399999E-03   -3.9593580E-24
  7.9750000E-03    4.0662064E-24
  8.0100000E-03    7.1686094E-24
  8.0450000E-03   -4.9237625E-24
  8.0800001E-03   -1.0303780E-23
  8.1150001E-03    4.1345620E-24
  8.1500001E-03    1.8153898E-23
  8.1850002E-03    9.1937550E-24
  8.2200002E-03   -2.1517376E-23
  8.2550002E-03   -2.4577659E-23
  8.2900003E-03    2.4589132E-23
  8.3250003E-03    3.9698043E-23
  8.3600003E-03   -2.6941225E-23
  8.3950004E-03   -4.8604649E-23
  8.4300004E-03    3.0436245E-23
  8.4650004E-03    7.3080447E-23
  8.5000005E-03   -2.7315713E-24
  8.5349996E-03   -1.1027216E-22
  8.5699996E-03   -2.2981601E-23
  8.6049996E-03    1.4855871E-22
  8.6399997E-03    8.8333766E-23
  8.6749997E-03   -1.6126822E-22
  8.7099997E-03   -1.8687832E-22
  8.7449998E-03    1.1652103E-22
  8.7799998E-03    2.8501752E-22
  8.8149998E-03   -1.1630851E-23
  8.8499999E-03   -3.5839400E-22
  8.8849999E-03   -4.4279965E-23
  8.9199999E-03    4.7206376E-22
  8.9550000E-03    2.3944890E-22
  8.9900000E-03   -4.7455676E-22
  9.0250000E-03   -4.9956776E-22
  9.0600001E-03    4.8861615E-22
  9.0950001E-03    8.0283200E-22
  9.1300001E-03   -2.0723132E-22
  9.1650002E-03   -1.3126087E-21
  9.2000002E-03   -6.1920012E-22
  9.2350002E-03    1.3514707E-21
  9.2700003E-03    9.4701053E-22
  9.3050003E-03   -1.8931680E-21
  9.3400003E-03   -2.1550583E-21
  9.3750004E-03    1.8976499E-21
  9.4100004E-03    4.1171679E-21
  9.4450004E-03   -1.9001314E-22
  9.4799995E-03   -4.5401638E-21
  9.5149996E-03   -1.5283764E-21
  9.5499996E-03    5.6892970E-21
  9.5849996E-03    4.4017499E-21
  9.6199997E-03   -5.4215263E-21
  9.6549997E-03   -8.1170555E-21
  9.6899997E-03    3.7115570E-21
  9.7249998E-03    1.4605027E-20
  9.7599998E-03    2.5520881E-21
  9.7949998E-03   -1.7959603E-20
  9.8299999E-03   -1.4829730E-20
  9.8649999E-03    1.7315919E-20
  9.8999999E-03    2.6924443E-20
  9.9350000E-03   -9.9502719E-21
  9.9700000E-03   -4.0215108E-20
  1.0005000E-02   -5.0372621E-21
  1.0040000E-02    5.5684248E-20
  1.0075000E-02    3.2560013E-20
  1.0110000E-02   -6.7518566E-20
  1.0145000E-02   -7.5510830E-20
  1.0180000E-02    5.0993038E-20
  1.0215000E-02    1.2233200E-19
  1.0250000E-02   -1.0727065E-20
  1.0285000E-02   -1.6258677E-19
  1.0320000E-02   -4.9921733E-20
  1.0355000E-02    2.1450645E-19
  1.0390000E-02    1.7322894E-19
  1.0425000E-02   -2.2968616E-19
  1.0460000E-02   -3.2378220E-19
  1.0495000E-02    1.6773446E-19
  1.0530000E-02    5.2117657E-19
  1.0565000E-02   -1.8632568E-20
  1.0600000E-02   -7.0857325E-19
  1.0635000E-02   -2.8182961E-19
  1.0670000E-02    8.1085744E-19
  1.0705000E-02    6.5898620E-19
  1.0740000E-02   -8.4529235E-19
  1.0775000E-02   -1.2789847E-18
  1.0810000E-02    6.2922450E-19
  1.0845000E-02    1.9236472E-18
  1.0880000E-02   -2.8308353E-20
  1.0915000E-02   -2.4742091E-18
  1.0950000E-02   -9.9111178E-19
  1.0985000E-02    2.7668993E-18
  1.1020000E-02    2.4515255E-18
  1.1055000E-02   -2.6965790E-18
  1.1090000E-02   -4.3951332E-18
  1.1125000E-02    1.7876041E-18
  1.1160000E-02    6.3590457E-18
  1.1195000E-02    2.1980016E-19
  1.1230000E-02   -8.1490128E-18
  1.1265000E-02   -3.5097906E-18
  1.1300000E-02    9.1313105E-18
  1.1335000E-02    8.0513187E-18
  1.1370000E-02   -8.6022400E-18
  1.1405000E-02   -1.3582528E-17
  1.1440000E-02    5.7120469E-18
  1.1475000E-02    1.9272436E-17
  1.1510000E-02    1.4460578E-19
  1.1545000E-02   -2.4251442E-17
  1.1580000E-02   -9.7065319E-18
  1.1615000E-02    2.6378269E-17
  1.1650000E-02    2.2256100E-17
  1.1685000E-02   -2.4018670E-17
  1.1720000E-02   -3.7268712E-17
  1.1755000E-02    1.5170289E-17
  1.1790000E-02    5.2394070E-17
  1.1825000E-02    1.8569907E-18
  1.1860000E-02   -6.4109667E-17
  1.1895000E-02   -2.7494198E-17
  1.1930000E-02    6.7640987E-17
  1.1965000E-02    6.0150265E-17
  1.2000000E-02   -5.9840972E-17
  1.2035000E-02   -9.7507998E-17
  1.2070000E-02    3.4612966E-17
  1.2105000E-02    1.3213840E-16
  1.2140000E-02    1.0743208E-17
  1.2175000E-02   -1.5610285E-16
  1.2210000E-02   -7.4948109E-17
  1.2245000E-02    1.5908994E-16
  1.2280000E-02    1.5373100E-16
  1.2315000E-02   -1.3031749E-16
  1.2350000E-02   -2.3596363E-16
  1.2385000E-02    6.0652006E-17
  1.2420000E-02    3.0500232E-16
  1.2455000E-02    5.2704868E-17
  1.2490000E-02   -3.4116475E-16
  1.2525000E-02   -2.0257182E-16
  1.2560000E-02    3.2285357E-16
  1.2595000E-02    3.7339902E-16
  1.2630000E-02   -2.2948897E-16
  1.2665000E-02   -5.3786063E-16
  1.2700000E-02    4.7377461E-17
  1.2735000E-02    6.5329343E-16
  1.2770000E-02    2.2074995E-16
  1.2805000E-02   -6.6984588E-16
  1.2840000E-02   -5.4477977E-16
  1.2875000E-02    5.4863870E-16
  1.2910000E-02    8.7778278E-16
  1.2945000E-02   -2.5816196E-16
  1.2980000E-02   -1.1465676E-15
  1.3015000E-02   -2.0377964E-16
  1.3050000E-02    1.2603615E-15
  1.3085000E-02    8.0973994E-16
  1.3120000E-02   -1.1194667E-15
  1.3155000E-02   -1.4682683E-15
  1.3190000E-02    6.5262502E-16
  1.3225000E-02    2.0522270E-15
  1.3260000E-02    1.6882816E-16
  1.3295000E-02   -2.3846256E-15
  1.3330000E-02   -1.3125859E-15
  1.3365000E-02    2.2566808E-15
  1.3400000E-02    2.6217213E-15
  1.3435000E-02   -1.5158938E-15
  1.3470000E-02   -3.8743727E-15
  1.3505000E-02    4.9695198E-17
  1.3540000E-02    4.7315239E-15
  1.3575000E-02    2.1137766E-15
  1.3610000E-02   -4.8083380E-15
  1.3645000E-02   -4.7802774E-15
  1.3680000E-02    3.7057115E-15
  1.3715000E-02    7.5353821E-15
  1.3750000E-02   -1.1377823E-15
  1.3785000E-02   -9.7430863E-15
  1.3820000E-02   -2.9661950E-15
  1.3855000E-02    1.0626720E-14
  1.3890000E-02    8.3652533E-15
  1.3925000E-02   -9.3522187E-15
  1.3960000E-02   -1.4401896E-14
  1.3995000E-02    5.1837569E-15
  1.4030000E-02    1.9976855E-14
  1.4065000E-02    2.2966104E-15
  1.4100000E-02   -2.3567276E-14
  1.4135000E-02   -1.2947696E-14
  1.4170000E-02    2.3394250E-14
  1.4205000E-02    2.5831428E-14
  1.4240000E-02   -1.7716736E-14
  1.4275000E-02   -3.9069415E-14
  1.4310000E-02    5.2447310E-15
  1.4345000E-02    4.9853164E-14
  1.4380000E-02    1.4379718E-14
  1.4415000E-02   -5.4645697E-14
  1.4450000E-02   -4.0074403E-14
  1.4485000E-02    4.9660336E-14
  1.4520000E-02    6.8915563E-14
  1.4555000E-02   -3.1602125E-14
  1.4590000E-02   -9.5986472E-14
  1.4625000E-02   -1.3698116E-15
  1.4660000E-02    1.1459025E-13
  1.4695000E-02    4.8530570E-14
  1.4730000E-02   -1.1707624E-13
  1.4765000E-02   -1.0573100E-13
  1.4800000E-02    9.6114367E-14
  1.4835000E-02    1.6484658E-13
  1.4870000E-02   -4.6546531E-14
  1.4905000E-02   -2.1400304E-13
  1.4940000E-02   -3.2528566E-14
  1.4975000E-02    2.3882697E-13
  1.5010000E-02    1.3592386E-13
  1.5045000E-02   -2.2462404E-13
  1.5080000E-02   -2.5102720E-13
  1.5115000E-02    1.5979354E-13
  1.5150000E-02    3.5802635E-13
  1.5185000E-02   -3.9531214E-14
  1.5220000E-02   -4.3173952E-13
  1.5255000E-02   -1.3060146E-13
  1.5290000E-02    4.4542267E-13
  1.5325000E-02    3.3223465E-13
  1.5360000E-02   -3.7647812E-13
  1.5395000E-02   -5.3421747E-13
  1.5430000E-02    2.1286327E-13
  1.5465000E-02    6.9551000E-13
  1.5500000E-02    4.0790227E-14
  1.5535000E-02   -7.7146622E-13
  1.5570000E-02   -3.5912584E-13
  1.5605000E-02    7.2302792E-13
  1.5640000E-02    6.9599497E-13
  1.5675001E-02   -5.2696736E-13
  1.5710000E-02   -9.8899860E-13
  1.5745001E-02    1.8565809E-13
  1.5780000E-02    1.1697540E-12
  1.5814999E-02    2.6723762E-13
  1.5850000E-02   -1.1777644E-12
  1.5884999E-02   -7.6695074E-13
  1.5920000E-02    9.7604737E-13
  1.5954999E-02    1.2254953E-12
  1.5990000E-02   -5.6443999E-13
  1.6024999E-02   -1.5469051E-12
  1.6060000E-02   -1.2930013E-14
  1.6094999E-02    1.6477953E-12
  1.6130000E-02    6.7002816E-13
  1.6164999E-02   -1.4785076E-12
  1.6200000E-02   -1.2915738E-12
  1.6235000E-02    1.0401057E-12
  1.6270000E-02    1.7558461E-12
  1.6305000E-02   -3.9087375E-13
  1.6340001E-02   -1.9622715E-12
  1.6375000E-02   -3.6025461E-13
  1.6410001E-02    1.8578899E-12
  1.6445000E-02    1.0747033E-12
  1.6480001E-02   -1.4549847E-12
  1.6515000E-02   -1.6157497E-12
  1.6550001E-02    8.3324076E-13
  1.6585000E-02    1.8831380E-12
  1.6620001E-02   -1.2400027E-13
  1.6655000E-02   -1.8416809E-12
  1.6690001E-02   -5.2189400E-13
  1.6725000E-02    1.5343973E-12
  1.6759999E-02    9.7526663E-13
  1.6795000E-02   -1.0738521E-12
  1.6829999E-02   -1.1675566E-12
  1.6865000E-02    6.1181800E-13
  1.6899999E-02    1.1156104E-12
  1.6935000E-02   -2.9265430E-13
  1.6969999E-02   -9.2167073E-13
  1.7005000E-02    2.0412342E-13
  1.7039999E-02    7.4571669E-13
  1.7075000E-02   -3.4021690E-13
  1.7109999E-02   -7.5484156E-13
  1.7145000E-02    5.8988816E-13
  1.7180000E-02    1.0621964E-12
  1.7215000E-02   -7.5994587E-13
  1.7250000E-02   -1.6742211E-12
  1.7285001E-02    6.2984714E-13
  1.7320000E-02    2.4647944E-12
  1.7355001E-02   -2.5264560E-14
  1.7390000E-02   -3.1886748E-12
  1.7425001E-02   -1.1093292E-12
  1.7460000E-02    3.5375283E-12
  1.7495001E-02    2.6646764E-12
  1.7530000E-02   -3.2252196E-12
  1.7565001E-02   -4.3641874E-12
  1.7600000E-02    2.0808650E-12
  1.7635001E-02    5.8126295E-12
  1.7670000E-02   -1.2108478E-13
  1.7704999E-02   -6.5871419E-12
  1.7740000E-02   -2.4230555E-12
  1.7774999E-02    6.3476069E-12
  1.7810000E-02    5.1371676E-12
  1.7844999E-02   -4.9354310E-12
  1.7880000E-02   -7.5091591E-12
  1.7914999E-02    2.4293250E-12
  1.7950000E-02    9.0469498E-12
  1.7984999E-02    8.6095264E-13
  1.8020000E-02   -9.3936274E-12
  1.8054999E-02   -4.4619308E-12
  1.8090000E-02    8.4065333E-12
  1.8124999E-02    7.8453051E-12
  1.8160000E-02   -6.1757405E-12
  1.8195000E-02   -1.0542209E-11
  1.8230001E-02    2.9812977E-12
  1.8265000E-02    1.2229139E-11
  1.8300001E-02    7.9492522E-13
  1.8335000E-02   -1.2757213E-11
  1.8370001E-02   -4.7650829E-12
  1.8405000E-02    1.2123479E-11
  1.8440001E-02    8.6036187E-12
  1.8475000E-02   -1.0402412E-11
  1.8510001E-02   -1.2060741E-11
  1.8545000E-02    7.6763942E-12
  1.8580001E-02    1.4920863E-11
  1.8615000E-02   -4.0053711E-12
  1.8650001E-02   -1.6933656E-11
  1.8685000E-02   -5.4343959E-13
  1.8719999E-02    1.7758166E-11
  1.8755000E-02    5.8061759E-12
  1.8789999E-02   -1.6968449E-11
  1.8825000E-02   -1.1411276E-11
  1.8859999E-02    1.4145519E-11
  1.8895000E-02    1.6704801E-11
  1.8929999E-02   -9.0437293E-12
  1.8965000E-02   -2.0768848E-11
  1.8999999E-02    1.7801581E-12
  1.9035000E-02    2.2559387E-11
  1.9069999E-02    7.0236872E-12
  1.9105000E-02   -2.1150489E-11
  1.9140000E-02   -1.6217822E-11
  1.9175000E-02    1.6029580E-11
  1.9210000E-02    2.4261735E-11
  1.9245001E-02   -7.3582078E-12
  1.9280000E-02   -2.9530402E-11
  1.9315001E-02   -3.9122004E-12
  1.9350000E-02    3.0715541E-11
  1.9385001E-02    1.6139076E-11
  1.9420000E-02   -2.7199175E-11
  1.9455001E-02   -2.7291832E-11
  1.9490000E-02    1.9290580E-11
  1.9525001E-02    3.5398001E-11
  1.9560000E-02   -8.2421786E-12
  1.9595001E-02   -3.9023069E-11
  1.9630000E-02   -3.9884350E-12
  1.9664999E-02    3.7650619E-11
  1.9700000E-02    1.5201371E-11
  1.9734999E-02   -3.1813177E-11
  1.9770000E-02   -2.3493549E-11
  1.9804999E-02    2.2929870E-11
  1.9840000E-02    2.7709769E-11
  1.9874999E-02   -1.2900229E-11
  1.9910000E-02   -2.7665804E-11
  1.9944999E-02    3.5921233E-12
  1.9980000E-02    2.4109182E-11
  2.0014999E-02    3.6734379E-12
  2.0050000E-02   -1.8359980E-11
  2.0085000E-02   -8.4015251E-12
  2.0120000E-02    1.1799466E-11
  2.0155000E-02    1.0896658E-11
  2.0190001E-02   -5.3746864E-12
  2.0225000E-02   -1.1896695E-11
  2.0260001E-02   -5.9479624E-13
  2.0295000E-02    1.2158687E-11
  2.0330001E-02    6.4133672E-12
  2.0365000E-02   -1.1980731E-11
  2.0400001E-02   -1.2620572E-11
  2.0435000E-02    1.1049939E-11
  2.0470001E-02    1.9554984E-11
  2.0505000E-02   -8.4830467E-12
  2.0540001E-02   -2.6767118E-11
  2.0575000E-02    3.4963837E-12
  2.0609999E-02    3.3081992E-11
  2.0645000E-02    4.1272732E-12
  2.0679999E-02   -3.6825824E-11
  2.0715000E-02   -1.3473510E-11
  2.0749999E-02    3.6682053E-11
  2.0785000E-02    2.2779370E-11
  2.0819999E-02   -3.2061371E-11
  2.0855000E-02   -2.9459078E-11
  2.0889999E-02    2.4107187E-11
  2.0925000E-02    3.1547102E-11
  2.0959999E-02   -1.5153620E-11
  2.0995000E-02   -2.8168011E-11
  2.1029999E-02    8.5329617E-12
  2.1065000E-02    2.0843771E-11
  2.1100000E-02   -6.4648759E-12
  2.1135001E-02   -1.2194998E-11
  2.1170000E-02    1.0083209E-11
  2.1205001E-02    6.3140534E-12
  2.1240000E-02   -1.7449561E-11
  2.1275001E-02   -5.7978418E-12
  2.1310000E-02    2.5339718E-11
  2.1345001E-02    1.2153193E-11
  2.1380000E-02   -2.8277837E-11
  2.1415001E-02   -2.2314411E-11
  2.1450000E-02    2.3323928E-11
  2.1485001E-02    3.2174256E-11
  2.1520000E-02   -8.7596666E-12
  2.1555001E-02   -3.4670999E-11
  2.1590000E-02   -1.1269455E-11
  2.1624999E-02    2.6389285E-11
  2.1660000E-02    3.2159757E-11
  2.1694999E-02   -3.9396325E-12
  2.1730000E-02   -4.4210600E-11
  2.1764999E-02   -2.7719382E-11
  2.1800000E-02    4.2884064E-11
  2.1834999E-02    6.3461028E-11
  2.1870000E-02   -2.2414704E-11
  2.1904999E-02   -9.1076424E-11
  2.1940000E-02   -1.2155511E-11
  2.1974999E-02    1.0494642E-10
  2.2010000E-02    5.7667916E-11
  2.2045000E-02   -9.5399313E-11
  2.2080000E-02   -9.9279938E-11
  2.2115000E-02    6.6510512E-11
  2.2150001E-02    1.3002378E-10
  2.2185000E-02   -1.8920789E-11
  2.2220001E-02   -1.3610545E-10
  2.2255000E-02   -3.0412641E-11
  2.2290001E-02    1.2157292E-10
  2.2325000E-02    7.7744651E-11
  2.2360001E-02   -8.1726882E-11
  2.2395000E-02   -1.0488849E-10
  2.2430001E-02    3.2312573E-11
  2.2465000E-02    1.1420771E-10
  2.2500001E-02    2.5768882E-11
  2.2535000E-02   -9.2624304E-11
  2.2569999E-02   -6.6457090E-11
  2.2605000E-02    5.8390931E-11
  2.2639999E-02    9.3764545E-11
  2.2675000E-02   -1.0545683E-11
  2.2709999E-02   -9.3840519E-11
  2.2745000E-02   -2.7885704E-11
  2.2779999E-02    8.6156970E-11
  2.2815000E-02    6.7914500E-11
  2.2849999E-02   -5.3908055E-11
  2.2885000E-02   -8.0475945E-11
  2.2919999E-02    2.8607882E-11
  2.2955000E-02    8.5416264E-11
  2.2990000E-02    1.0673243E-12
  2.3025000E-02   -6.9658820E-11
  2.3060000E-02   -1.0322469E-11
  2.3095001E-02    6.3577275E-11
  2.3130000E-02    2.4661967E-11
  2.3165001E-02   -4.5929975E-11
  2.3200000E-02   -1.6723461E-11
  2.3235001E-02    5.2949357E-11
  2.3270000E-02    2.5903326E-11
  2.3305001E-02   -4.8201516E-11
  2.3340000E-02   -2.6084614E-11
  2.3375001E-02    5.6694371E-11
  2.3410000E-02    5.0923855E-11
  2.3445001E-02   -3.8134721E-11
  2.3480000E-02   -5.7099575E-11
  2.3514999E-02    3.2000038E-11
  2.3550000E-02    8.9284385E-11
  2.3584999E-02    1.6166258E-11
  2.3620000E-02   -8.0945209E-11
  2.3654999E-02   -5.0806259E-11
  2.3690000E-02    7.1790678E-11
  2.3724999E-02    1.0215253E-10
  2.3760000E-02   -2.6720966E-11
  2.3794999E-02   -1.2280467E-10
  2.3830000E-02    3.5565698E-12
  2.3864999E-02    1.6053370E-10
  2.3900000E-02    5.9369565E-11
  2.3934999E-02   -1.3581417E-10
  2.3970000E-02   -7.7693560E-11
  2.4005000E-02    1.1063074E-10
  2.4040001E-02    9.3582322E-11
  2.4075000E-02   -6.9939970E-11
  2.4110001E-02   -9.3192211E-11
  2.4145000E-02    4.4691709E-11
  2.4180001E-02    1.1138584E-10
  2.4215000E-02    1.0951304E-11
  2.4250001E-02   -9.6232820E-11
  2.4285000E-02   -5.0458273E-11
  2.4320001E-02    6.7359368E-11
  2.4355000E-02    8.1709833E-11
  2.4390001E-02   -1.2508311E-11
  2.4425000E-02   -7.1712206E-11
  2.4460001E-02   -1.8789404E-11
  2.4495000E-02    5.7798051E-11
  2.4529999E-02    5.4419913E-11
  2.4565000E-02   -2.2015868E-11
  2.4599999E-02   -6.7358633E-11
  2.4635000E-02    1.6808984E-12
  2.4669999E-02    8.2096691E-11
  2.4705000E-02    2.9727470E-11
  2.4739999E-02   -5.9146910E-11
  2.4775000E-02   -2.4907744E-11
  2.4809999E-02    4.2416994E-11
  2.4845000E-02    5.1008247E-12
  2.4879999E-02   -4.9522508E-11
  2.4915000E-02   -2.8311630E-12
  2.4950000E-02    5.2024308E-11
  2.4985000E-02   -2.1873496E-11
  2.5020000E-02   -1.0443401E-10
  2.5055001E-02   -2.5099473E-11
  2.5090000E-02    9.9204735E-11
  2.5125001E-02    5.7985214E-11
  2.5160000E-02   -8.5263574E-11
  2.5195001E-02   -8.1565012E-11
  2.5230000E-02    6.5600497E-11
  2.5265001E-02    7.1396479E-11
  2.5300000E-02   -1.0334048E-10
  2.5335001E-02   -1.3588242E-10
  2.5370000E-02    7.0462705E-11
  2.5405001E-02    1.6039886E-10
  2.5440000E-02   -1.1233710E-11
  2.5474999E-02   -1.4613211E-10
  2.5510000E-02   -5.4132660E-11
  2.5544999E-02    7.7563261E-11
  2.5580000E-02    3.6577890E-11
  2.5614999E-02   -7.1445148E-11
  2.5650000E-02   -6.9312001E-11
  2.5684999E-02    2.4290514E-11
  2.5720000E-02    8.2274978E-11
  2.5754999E-02    1.1492806E-11
  2.5790000E-02   -1.4187361E-10
  2.5824999E-02   -1.2302913E-10
  2.5860000E-02    1.0479806E-10
  2.5895000E-02    1.9795288E-10
  2.5930000E-02    5.1440506E-12
  2.5965000E-02   -1.9011362E-10
  2.6000001E-02   -1.3534339E-10
  2.6035000E-02    6.9914331E-11
  2.6070001E-02    1.2891996E-10
  2.6105000E-02   -5.6164323E-11
  2.6140001E-02   -1.9827838E-10
  2.6175000E-02   -2.8391458E-11
  2.6210001E-02    2.1756665E-10
  2.6245000E-02    1.5317787E-10
  2.6280001E-02   -1.4166228E-10
  2.6315000E-02   -2.2645308E-10
  2.6350001E-02    9.6610558E-12
  2.6385000E-02    1.7171937E-10
  2.6419999E-02    4.4504411E-11
  2.6455000E-02   -6.7706021E-11
  2.6489999E-02   -1.2702378E-11
  2.6525000E-02   -1.8996953E-11
  2.6559999E-02   -7.3988357E-11
  2.6595000E-02    3.1748590E-11
  2.6629999E-02    1.3327486E-10
  2.6665000E-02   -2.8257148E-11
  2.6699999E-02   -2.1890699E-10
  2.6735000E-02   -9.2178772E-11
  2.6769999E-02    1.6346849E-10
  2.6805000E-02    1.0482580E-10
  2.6839999E-02   -1.3313096E-10
  2.6875000E-02   -5.2663679E-11
  2.6910000E-02    1.7435359E-10
  2.6945001E-02    2.0563353E-11
  2.6980000E-02   -2.0237113E-10