 -4.8000002E-03    1.0000000E-24
 -4.7650002E-03    1.0000002E-24
 -4.7300002E-03    1.0000002E-24
 -4.6950001E-03    1.0000001E-24
 -4.6600001E-03    1.0000000E-24
 -4.6250001E-03    1.0000003E-24
 -4.5900000E-03    1.0000002E-24
 -4.5550000E-03    9.9999992E-25
 -4.5200000E-03    1.0000004E-24
 -4.4849999E-03    1.0000002E-24
 -4.4499999E-03    9.9999992E-25
 -4.4149999E-03    1.0000001E-24
 -4.3799998E-03    9.9999992E-25
 -4.3449998E-03    1.0000002E-24
 -4.3100002E-03    1.0000011E-24
 -4.2750002E-03    1.0000004E-24
 -4.2400002E-03    9.9999923E-25
 -4.2050001E-03    1.0000002E-24
 -4.1700001E-03    1.0000005E-24
 -4.1350001E-03    9.9999963E-25
 -4.1000000E-03    1.0000001E-24
 -4.0650000E-03    1.0000002E-24
 -4.0300000E-03    9.9999953E-25
 -3.9949999E-03    1.0000004E-24
 -3.9599999E-03    1.0000003E-24
 -3.9249999E-03    9.9999913E-25
 -3.8900001E-03    1.0000002E-24
 -3.8550000E-03    1.0000008E-24
 -3.8200000E-03    9.9999992E-25
 -3.7849999E-03    1.0000005E-24
 -3.7499999E-03    1.0000013E-24
 -3.7150001E-03    9.9999943E-25
 -3.6800001E-03    9.9999923E-25
 -3.6450000E-03    1.0000012E-24
 -3.6100000E-03    1.0000004E-24
 -3.5750000E-03    9.9999933E-25
 -3.5399999E-03    1.0000008E-24
 -3.5049999E-03    1.0000002E-24
 -3.4700001E-03    9.9999874E-25
 -3.4350001E-03    1.0000007E-24
 -3.4000000E-03    1.0000008E-24
 -3.3650000E-03    9.9999903E-25
 -3.3300000E-03    1.0000003E-24
 -3.2949999E-03    1.0000010E-24
 -3.2599999E-03    9.9999923E-25
 -3.2250001E-03    9.9999963E-25
 -3.1900001E-03    1.0000011E-24
 -3.1550000E-03    1.0000000E-24
 -3.1200000E-03    9.9999953E-25
 -3.0850000E-03    1.0000014E-24
 -3.0499999E-03    1.0000013E-24
 -3.0149999E-03    9.9999943E-25
 -2.9800001E-03    9.9999933E-25
 -2.9450001E-03    1.0000003E-24
 -2.9100000E-03    1.0000000E-24
 -2.8750000E-03    9.9999933E-25
 -2.8400000E-03    1.0000000E-24
 -2.8049999E-03    1.0000015E-24
 -2.7699999E-03    1.0000008E-24
 -2.7350001E-03    9.9999903E-25
 -2.7000001E-03    1.0000000E-24
 -2.6650000E-03    1.0000012E-24
 -2.6300000E-03    9.9999992E-25
 -2.5950000E-03    9.9999903E-25
 -2.5599999E-03    1.0000008E-24
 -2.5249999E-03    1.0000005E-24
 -2.4900001E-03    9.9999933E-25
 -2.4550001E-03    1.0000004E-24
 -2.4200000E-03    1.0000007E-24
 -2.3850000E-03    9.9999953E-25
 -2.3500000E-03    1.0000001E-24
 -2.3149999E-03    1.0000003E-24
 -2.2799999E-03    9.9999913E-25
 -2.2450001E-03    1.0000001E-24
 -2.2100001E-03    1.0000012E-24
 -2.1750000E-03    1.0000000E-24
 -2.1400000E-03    9.9999963E-25
 -2.1050000E-03    1.0000006E-24
 -2.0699999E-03    1.0000002E-24
 -2.0349999E-03    9.9999972E-25
 -2.0000001E-03    1.0000002E-24
 -1.9650001E-03    1.0000009E-24
 -1.9300000E-03    1.0000005E-24
 -1.8950000E-03    9.9999963E-25
 -1.8600000E-03    9.9999972E-25
 -1.8250000E-03    1.0000008E-24
 -1.7900000E-03    1.0000005E-24
 -1.7550000E-03    9.9999923E-25
 -1.7199999E-03    9.9999972E-25
 -1.6850000E-03    1.0000005E-24
 -1.6500000E-03    9.9999913E-25
 -1.6150000E-03    9.9999953E-25
 -1.5800000E-03    1.0000012E-24
 -1.5450000E-03    1.0000009E-24
 -1.5100000E-03    9.9999972E-25
 -1.4750001E-03    1.0000004E-24
 -1.4400000E-03    9.9999972E-25
 -1.4050000E-03    9.9999884E-25
 -1.3700000E-03    1.0000012E-24
 -1.3350000E-03    1.0000015E-24
 -1.3000000E-03    9.9999913E-25
 -1.2650000E-03    9.9999923E-25
 -1.2300001E-03    1.0000005E-24
 -1.1950000E-03    1.0000001E-24
 -1.1600000E-03    9.9999933E-25
 -1.1250000E-03    1.0000003E-24
 -1.0900000E-03    1.0000018E-24
 -1.0550000E-03    1.0000006E-24
 -1.0200000E-03    9.9999824E-25
 -9.8500005E-04    1.0000000E-24
 -9.5000002E-04    1.0000008E-24
 -9.1499998E-04    9.9999815E-25
 -8.8000001E-04    9.9999972E-25
 -8.4499997E-04    1.0000023E-24
 -8.1000000E-04    9.9999943E-25
 -7.7500002E-04    9.9999992E-25
 -7.3999999E-04    1.0000024E-24
 -7.0500001E-04    9.9999884E-25
 -6.6999998E-04    9.9999815E-25
 -6.3500000E-04    1.0000022E-24
 -6.0000003E-04    1.0000005E-24
 -5.6499999E-04    9.9999775E-25
 -5.3000002E-04    1.0000006E-24
 -4.9499999E-04    1.0000014E-24
 -4.6000001E-04    9.9999972E-25
 -4.2500001E-04    1.0000008E-24
 -3.9000000E-04    1.0000013E-24
 -3.5500000E-04    1.0000002E-24
 -3.1999999E-04    9.9999913E-25
 -2.8499999E-04    9.9999815E-25
 -2.5000001E-04    9.9999992E-25
 -2.1499999E-04    1.0000024E-24
 -1.8000000E-04    9.9999953E-25
 -1.4500000E-04    9.9999864E-25
 -1.1000000E-04    1.0000021E-24
 -7.5000004E-05    1.0000001E-24
 -3.9999999E-05    9.9999726E-25
 -4.9999999E-06    1.0000015E-24
  2.9999999E-05    1.0000024E-24
  6.5000000E-05    9.9999805E-25
  9.9999997E-05    1.0000002E-24
  1.3499999E-04    1.0000029E-24
  1.7000000E-04    9.9999824E-25
  2.0500000E-04    9.9999884E-25
  2.3999999E-04    1.0000025E-24
  2.7500000E-04    9.9999755E-25
  3.1000000E-04    9.9999677E-25
  3.4500001E-04    1.0000036E-24
  3.8000001E-04    1.0000017E-24
  4.1499999E-04    9.9999815E-25
  4.4999999E-04    1.0000023E-24
  4.8500000E-04    1.0000022E-24
  5.2000000E-04    9.9999706E-25
  5.5499998E-04    9.9999805E-25
  5.9000001E-04    1.0000005E-24
  6.2499999E-04    1.0000006E-24
  6.6000002E-04    1.0000013E-24
  6.9500000E-04    1.0000017E-24
  7.3000003E-04    1.0000010E-24
  7.6500000E-04    1.0000002E-24
  7.9999998E-04    9.9999815E-25
  8.3500001E-04    9.9999844E-25
  8.6999999E-04    1.0000019E-24
  9.0500002E-04    1.0000008E-24
  9.4000000E-04    9.9999884E-25
  9.7499997E-04    1.0000012E-24
  1.0100000E-03    1.0000008E-24
  1.0450000E-03    9.9999923E-25
  1.0800000E-03    1.0000001E-24
  1.1150000E-03    9.9999953E-25
  1.1500000E-03    9.9999953E-25
  1.1849999E-03    1.0000019E-24
  1.2200000E-03    1.0000012E-24
  1.2550000E-03    9.9999884E-25
  1.2900000E-03    1.0000006E-24
  1.3250000E-03    1.0000003E-24
  1.3600000E-03    9.9999765E-25
  1.3950000E-03    9.9999972E-25
  1.4299999E-03    1.0000016E-24
  1.4650000E-03    9.9999992E-25
  1.5000000E-03    1.0000006E-24
  1.5350000E-03    1.0000007E-24
  1.5700000E-03    9.9999933E-25
  1.6050000E-03    1.0000012E-24
  1.6400000E-03    1.0000024E-24
  1.6749999E-03    9.9999834E-25
  1.7100000E-03    9.9999785E-25
  1.7450000E-03    1.0000010E-24
  1.7800000E-03    9.9999953E-25
  1.8150000E-03    9.9999893E-25
  1.8500000E-03    1.0000029E-24
  1.8850000E-03    1.0000019E-24
  1.9200000E-03    9.9999834E-25
  1.9550000E-03    9.9999923E-25
  1.9900000E-03    1.0000002E-24
  2.0250001E-03    9.9999923E-25
  2.0600001E-03    1.0000011E-24
  2.0949999E-03    1.0000021E-24
  2.1299999E-03    1.0000007E-24
  2.1650000E-03    1.0000004E-24
  2.2000000E-03    9.9999903E-25
  2.2350000E-03    9.9999834E-25
  2.2700001E-03    1.0000006E-24
  2.3050001E-03    9.9999913E-25
  2.3399999E-03    9.9999805E-25
  2.3749999E-03    1.0000029E-24
  2.4100000E-03    1.0000026E-24
  2.4450000E-03    9.9999785E-25
  2.4800000E-03    1.0000007E-24
  2.5150001E-03    1.0000014E-24
  2.5500001E-03    9.9999667E-25
  2.5849999E-03    1.0000006E-24
  2.6199999E-03    1.0000039E-24
  2.6550000E-03    9.9999795E-25
  2.6900000E-03    9.9999805E-25
  2.7250000E-03    1.0000034E-24
  2.7600001E-03    9.9999903E-25
  2.7950001E-03    9.9999795E-25
  2.8299999E-03    1.0000049E-24
  2.8649999E-03    1.0000009E-24
  2.9000000E-03    9.9999548E-25
  2.9350000E-03    1.0000011E-24
  2.9700000E-03    1.0000012E-24
  3.0050001E-03    9.9999706E-25
  3.0400001E-03    1.0000005E-24
  3.0749999E-03    1.0000023E-24
  3.1099999E-03    9.9999972E-25
  3.1450000E-03    1.0000005E-24
  3.1800000E-03    1.0000007E-24
  3.2150000E-03    1.0000011E-24
  3.2500001E-03    1.0000011E-24
  3.2850001E-03    9.9999617E-25
  3.3199999E-03    9.9999874E-25
  3.3549999E-03    1.0000048E-24
  3.3900000E-03    9.9999874E-25
  3.4250000E-03    9.9999686E-25
  3.4600000E-03    1.0000046E-24
  3.4950001E-03    9.9999972E-25
  3.5300001E-03    9.9999677E-25
  3.5649999E-03    1.0000058E-24
  3.5999999E-03    1.0000012E-24
  3.6350000E-03    9.9999302E-25
  3.6700000E-03    1.0000014E-24
  3.7050000E-03    1.0000016E-24
  3.7400001E-03    9.9999509E-25
  3.7750001E-03    1.0000027E-24
  3.8099999E-03    1.0000055E-24
  3.8449999E-03    9.9999755E-25
  3.8800000E-03    9.9999923E-25
  3.9149998E-03    1.0000019E-24
  3.9499998E-03    9.9999755E-25
  3.9849998E-03    1.0000002E-24
  4.0199999E-03    1.0000035E-24
  4.0549999E-03    9.9999982E-25
  4.0899999E-03    1.0000000E-24
  4.1250000E-03    1.0000008E-24
  4.1600000E-03    9.9999913E-25
  4.1950000E-03    1.0000008E-24
  4.2300001E-03    1.0000000E-24
  4.2650001E-03    9.9999736E-25
  4.3000001E-03    1.0000010E-24
  4.3350002E-03    1.0000013E-24
  4.3700002E-03    9.9999765E-25
  4.4049998E-03    1.0000016E-24
  4.4399998E-03    1.0000020E-24
  4.4749998E-03    9.9999686E-25
  4.5099999E-03    1.0000001E-24
  4.5449999E-03    1.0000022E-24
  4.5799999E-03    9.9999854E-25
  4.6150000E-03    1.0000019E-24
  4.6500000E-03    1.0000022E-24
  4.6850001E-03    9.9999538E-25
  4.7200001E-03    1.0000008E-24
  4.7550001E-03    1.0000057E-24
  4.7900002E-03    9.9999647E-25
  4.8250002E-03    9.9999716E-25
  4.8600002E-03    1.0000067E-24
  4.8949998E-03    1.0000002E-24
  4.9299998E-03    9.9999440E-25
  4.9649999E-03    1.0000018E-24
  4.9999999E-03    1.0000027E-24
  5.0349999E-03    9.9999775E-25
  5.0700000E-03    1.0000000E-24
  5.1050000E-03    1.0000008E-24
  5.1400000E-03    9.9999677E-25
  5.1750001E-03    9.9999884E-25
  5.2100001E-03    1.0000034E-24
  5.2450001E-03    1.0000007E-24
  5.2800002E-03    9.9999874E-25
  5.3150002E-03    1.0000022E-24
  5.3500002E-03    1.0000012E-24
  5.3849998E-03    9.9999637E-25
  5.4199998E-03    9.9999893E-25
  5.4549999E-03    1.0000042E-24
  5.4899999E-03    1.0000004E-24
  5.5249999E-03    9.9999588E-25
  5.5600000E-03    1.0000003E-24
  5.5950000E-03    1.0000042E-24
  5.6300000E-03    1.0000004E-24
  5.6650001E-03    9.9999815E-25
  5.7000001E-03    1.0000018E-24
  5.7350001E-03    1.0000012E-24
  5.7700002E-03    9.9999706E-25
  5.8050002E-03    9.9999982E-25
  5.8400002E-03    1.0000047E-24
  5.8749998E-03    9.9999953E-25
  5.9099998E-03    9.9999598E-25
  5.9449999E-03    1.0000024E-24
  5.9799999E-03    1.0000015E-24
  6.0149999E-03    9.9999519E-25
  6.0500000E-03    1.0000005E-24
  6.0850000E-03    1.0000036E-24
  6.1200000E-03    9.9999854E-25
  6.1550001E-03    1.0000022E-24
  6.1900001E-03    1.0000051E-24
  6.2250001E-03    9.9999677E-25
  6.2600002E-03    9.9999637E-25
  6.2950002E-03    1.0000029E-24
  6.3299998E-03    1.0000003E-24
  6.3649998E-03    9.9999834E-25
  6.3999998E-03    1.0000019E-24
  6.4349999E-03    9.9999982E-25
  6.4699999E-03    9.9999657E-25
  6.5049999E-03    9.9999923E-25
  6.5400000E-03    1.0000022E-24
  6.5750000E-03    1.0000015E-24
  6.6100000E-03    9.9999913E-25
  6.6450001E-03    9.9999854E-25
  6.6800001E-03    1.0000026E-24
  6.7150001E-03    1.0000019E-24
  6.7500002E-03    9.9999726E-25
  6.7850002E-03    9.9999972E-25
  6.8199998E-03    1.0000024E-24
  6.8549998E-03    9.9999746E-25
  6.8899998E-03    9.9999903E-25
  6.9249999E-03    1.0000035E-24
  6.9599999E-03    9.9999854E-25
  6.9949999E-03    9.9999844E-25
  7.0300000E-03    1.0000051E-24
  7.0650000E-03    1.0000015E-24
  7.1000000E-03    9.9999617E-25
  7.1350001E-03    9.9999953E-25
  7.1700001E-03    9.9999963E-25
  7.2050001E-03    9.9999824E-25
  7.2400002E-03    1.0000032E-24
  7.2750002E-03    1.0000028E-24
  7.3099998E-03    9.9999923E-25
  7.3449998E-03    1.0000001E-24
  7.3799998E-03    9.9999903E-25
  7.4149999E-03    9.9999775E-25
  7.4499999E-03    1.0000002E-24
  7.4850000E-03    1.0000004E-24
  7.5200000E-03    1.0000007E-24
  7.5550000E-03    1.0000044E-24
  7.5900001E-03    1.0000009E-24
  7.6250001E-03    9.9999588E-25
  7.6600001E-03    9.9999893E-25
  7.6950002E-03    1.0000000E-24
  7.7300002E-03    9.9999775E-25
  7.7650002E-03    1.0000021E-24
  7.7999998E-03    1.0000043E-24
  7.8349998E-03    9.9999913E-25
  7.8699999E-03    1.0000002E-24
  7.9049999E-03    1.0000032E-24
  7.9399999E-03    9.9999943E-25
  7.9750000E-03    9.9999854E-25
  8.0100000E-03    1.0000003E-24
  8.0450000E-03    9.9999903E-25
  8.0800001E-03    9.9999893E-25
  8.1150001E-03    1.0000009E-24
  8.1500001E-03    1.0000000E-24
  8.1850002E-03    1.0000004E-24
  8.2200002E-03    1.0000007E-24
  8.2550002E-03    9.9999903E-25
  8.2900003E-03    1.0000002E-24
  8.3250003E-03    1.0000015E-24
  8.3600003E-03    9.9999982E-25
  8.3950004E-03    1.0000004E-24
  8.4300004E-03    1.0000014E-24
  8.4650004E-03    9.9999982E-25
  8.5000005E-03    9.9999923E-25
  8.5349996E-03    9.9999923E-25
  8.5699996E-03    9.9999864E-25
  8.6049996E-03    9.9999874E-25
  8.6399997E-03    1.0000005E-24
  8.6749997E-03    1.0000017E-24
  8.7099997E-03    1.0000011E-24
  8.7449998E-03    1.0000004E-24
  8.7799998E-03    1.0000006E-24
  8.8149998E-03    1.0000003E-24
  8.8499999E-03    9.9999933E-25
  8.8849999E-03    9.9999953E-25
  8.9199999E-03    1.0000009E-24
  8.9550000E-03    1.0000011E-24
  8.9900000E-03    9.9999963E-25
  9.0250000E-03    9.9999815E-25
  9.0600001E-03    9.9999834E-25
  9.0950001E-03    1.0000022E-24
  9.1300001E-03    1.0000030E-24
  9.1650002E-03    9.9999617E-25
  9.2000002E-03    9.9999647E-25
  9.2350002E-03    1.0000085E-24
  9.2700003E-03    1.0000078E-24
  9.3050003E-03    9.9998819E-25
  9.3400003E-03    9.9998513E-25
  9.3750004E-03    1.0000120E-24
  9.4100004E-03    1.0000256E-24
  9.4450004E-03    9.9999134E-25
  9.4799995E-03    9.9995959E-25
  9.5149996E-03    1.0000052E-24
  9.5499996E-03    1.0000682E-24
  9.5849996E-03    1.0000081E-24
  9.6199997E-03    9.9989244E-25
  9.6549997E-03    9.9995851E-25
  9.6899997E-03    1.0001574E-24
  9.7249998E-03    1.0001103E-24
  9.7599998E-03    9.9978811E-25
  9.7949998E-03    9.9976583E-25
  9.8299999E-03    1.0002611E-24
  9.8649999E-03    1.0004399E-24
  9.8999999E-03    9.9971682E-25
  9.9350000E-03    9.9923532E-25
  9.9700000E-03    1.0002300E-24
  1.0005000E-02    1.0012547E-24
  1.0040000E-02    9.9999509E-25
  1.0075000E-02    9.9805518E-25
  1.0110000E-02    9.9945610E-25
  1.0145000E-02    1.0028480E-24
  1.0180000E-02    1.0016515E-24
  1.0215000E-02    9.9609023E-25
  1.0250000E-02    9.9634296E-25
  1.0285000E-02    1.0049401E-24
  1.0320000E-02    1.0070110E-24
  1.0355000E-02    9.9448312E-25
  1.0390000E-02    9.8773432E-25
  1.0425000E-02    1.0048326E-24
  1.0460000E-02    1.0200056E-24
  1.0495000E-02    9.9851844E-25
  1.0530000E-02    9.6934548E-25
  1.0565000E-02    9.9322844E-25
  1.0600000E-02    1.0441395E-24
  1.0635000E-02    1.0232422E-24
  1.0670000E-02    9.4070618E-25
  1.0705000E-02    9.4750517E-25
  1.0740000E-02    1.0729235E-24
  1.0775000E-02    1.1002886E-24
  1.0810000E-02    9.2156743E-25
  1.0845000E-02    8.2698335E-25
  1.0880000E-02    1.0640103E-24
  1.0915000E-02    1.2763017E-24
  1.0950000E-02    9.8958617E-25
  1.0985000E-02    5.8784529E-25
  1.1020000E-02    8.8871561E-25
  1.1055000E-02    1.5740945E-24
  1.1090000E-02    1.3413472E-24
  1.1125000E-02    2.6054920E-25
  1.1160000E-02    2.6886645E-25
  1.1195000E-02    1.8582502E-24
  1.1230000E-02    2.3389688E-24
  1.1265000E-02    1.6142712E-25
  1.1300000E-02   -1.2190898E-24
  1.1335000E-02    1.5291471E-24
  1.1370000E-02    4.3997297E-24
  1.1405000E-02    1.2980875E-24
  1.1440000E-02   -3.8455103E-24
  1.1475000E-02   -9.6007212E-25
  1.1510000E-02    7.3993930E-24
  1.1545000E-02    5.8596478E-24
  1.1580000E-02   -6.7004244E-24
  1.1615000E-02   -8.4524892E-24
  1.1650000E-02    9.0781151E-24
  1.1685000E-02    1.7163513E-23
  1.1720000E-02   -5.4314710E-24
  1.1755000E-02   -2.4224631E-23
  1.1790000E-02    2.1143606E-24
  1.1825000E-02    3.7405443E-23
  1.1860000E-02    1.1131602E-23
  1.1895000E-02   -4.7608251E-23
  1.1930000E-02   -2.9128522E-23
  1.1965000E-02    6.0314424E-23
  1.2000000E-02    6.2997479E-23
  1.2035000E-02   -6.2900979E-23
  1.2070000E-02   -1.0754263E-22
  1.2105000E-02    5.5900710E-23
  1.2140000E-02    1.7212637E-22
  1.2175000E-02   -2.0371423E-23
  1.2210000E-02   -2.4687338E-22
  1.2245000E-02   -5.0340569E-23
  1.2280000E-02    3.3207949E-22
  1.2315000E-02    1.8199906E-22
  1.2350000E-02   -4.0283676E-22
  1.2385000E-02   -3.8542886E-22
  1.2420000E-02    4.3709084E-22
  1.2455000E-02    6.8425229E-22
  1.2490000E-02   -3.7974179E-22
  1.2525000E-02   -1.0756048E-21
  1.2560000E-02    1.7189657E-22
  1.2595000E-02    1.5510867E-21
  1.2630000E-02    2.8088722E-22
  1.2665000E-02   -2.0497176E-21
  1.2700000E-02   -1.0707736E-21
  1.2735000E-02    2.4714388E-21
  1.2770000E-02    2.3049691E-21
  1.2805000E-02   -2.6252091E-21
  1.2840000E-02   -4.0463434E-21
  1.2875000E-02    2.2438631E-21
  1.2910000E-02    6.3020229E-21
  1.2945000E-02   -9.4485483E-22
  1.2980000E-02   -8.9296336E-21
  1.3015000E-02   -1.7250733E-21
  1.3050000E-02    1.1590480E-20
  1.3085000E-02    6.2755216E-21
  1.3120000E-02   -1.3628253E-20
  1.3155000E-02   -1.3144987E-20
  1.3190000E-02    1.4015506E-20
  1.3225000E-02    2.2573024E-20
  1.3260000E-02   -1.1266514E-20
  1.3295000E-02   -3.4333043E-20
  1.3330000E-02    3.4821145E-21
  1.3365000E-02    4.7453843E-20
  1.3400000E-02    1.1549920E-20
  1.3435000E-02   -5.9823285E-20
  1.3470000E-02   -3.6009744E-20
  1.3505000E-02    6.7849445E-20
  1.3540000E-02    7.1524324E-20
  1.3575000E-02   -6.6143320E-20
  1.3610000E-02   -1.1829233E-19
  1.3645000E-02    4.7488381E-20
  1.3680000E-02    1.7397796E-19
  1.3715000E-02   -3.1483280E-21
  1.3750000E-02   -2.3230127E-19
  1.3785000E-02   -7.6132321E-20
  1.3820000E-02    2.8161522E-19
  1.3855000E-02    1.9833792E-19
  1.3890000E-02   -3.0365162E-19
  1.3925000E-02   -3.6730056E-19
  1.3960000E-02    2.7301241E-19
  1.3995000E-02    5.7879497E-19
  1.4030000E-02   -1.5792201E-19
  1.4065000E-02   -8.1563829E-19
  1.4100000E-02   -7.6886561E-20
  1.4135000E-02    1.0424869E-18
  1.4170000E-02    4.6449748E-19
  1.4205000E-02   -1.2011121E-18
  1.4240000E-02   -1.0265834E-18
  1.4275000E-02    1.2078234E-18
  1.4310000E-02    1.7605445E-18
  1.4345000E-02   -9.5499222E-19
  1.4380000E-02   -2.6233644E-18
  1.4415000E-02    3.1918056E-19
  1.4450000E-02    3.5139013E-18
  1.4485000E-02    8.2170478E-19
  1.4520000E-02   -4.2566177E-18
  1.4555000E-02   -2.5600990E-18
  1.4590000E-02    4.5914240E-18
  1.4625000E-02    4.9185785E-18
  1.4660000E-02   -4.1760825E-18
  1.4695000E-02   -7.7992213E-18
  1.4730000E-02    2.6085178E-18
  1.4765000E-02    1.0927537E-17
  1.4800000E-02    5.2319019E-19
  1.4835000E-02   -1.3800197E-17
  1.4870000E-02   -5.5571052E-18
  1.4905000E-02    1.5650471E-17
  1.4940000E-02    1.2637846E-17
  1.4975000E-02   -1.5450227E-17
  1.5010000E-02   -2.1565833E-17
  1.5045000E-02    1.1970605E-17
  1.5080000E-02    3.1629557E-17
  1.5115000E-02   -3.9232080E-18
  1.5150000E-02   -4.1448932E-17
  1.5185000E-02   -9.8022102E-18
  1.5220000E-02    4.8869311E-17
  1.5255000E-02    2.9796806E-17
  1.5290000E-02   -5.0959649E-17
  1.5325000E-02   -5.5705274E-17
  1.5360000E-02    4.4176031E-17
  1.5395000E-02    8.5752292E-17
  1.5430000E-02   -2.4747657E-17
  1.5465000E-02   -1.1630251E-16
  1.5500000E-02   -1.0669496E-17
  1.5535000E-02    1.4156213E-16
  1.5570000E-02    6.4063153E-17
  1.5605000E-02   -1.5357349E-16
  1.5640000E-02   -1.3490834E-16
  1.5675001E-02    1.4265030E-16
  1.5710000E-02    2.1890166E-16
  1.5745001E-02   -9.8411570E-17
  1.5780000E-02   -3.0680224E-16
  1.5814999E-02    1.1512276E-17
  1.5850000E-02    3.8366810E-16
  1.5884999E-02    1.2392850E-16
  1.5920000E-02   -4.2886461E-16
  1.5954999E-02   -3.0734191E-16
  1.5990000E-02    4.1723699E-16
  1.6024999E-02    5.2850801E-16
  1.6060000E-02   -3.2180428E-16
  1.6094999E-02   -7.6468102E-16
  1.6130000E-02    1.1817310E-16
  1.6164999E-02    9.7879909E-16
  1.6200000E-02    2.0937639E-16
  1.6235000E-02   -1.1197019E-15
  1.6270000E-02   -6.6055732E-16
  1.6305000E-02    1.1252239E-15
  1.6340001E-02    1.2113937E-15
  1.6375000E-02   -9.2901631E-16
  1.6410001E-02   -1.8075634E-15
  1.6445000E-02    4.7138130E-16
  1.6480001E-02    2.3605978E-15
  1.6515000E-02    2.8609898E-16
  1.6550001E-02   -2.7490401E-15
  1.6585000E-02   -1.3434424E-15
  1.6620001E-02    2.8265957E-15
  1.6655000E-02    2.6448375E-15
  1.6690001E-02   -2.4387713E-15
  1.6725000E-02   -4.0642991E-15
  1.6759999E-02    1.4485039E-15
  1.6795000E-02    5.3985420E-15
  1.6829999E-02    2.3046462E-16
  1.6865000E-02   -6.3716592E-15
  1.6899999E-02   -2.5954479E-15
  1.6935000E-02    6.6557672E-15
  1.6969999E-02    5.5176603E-15
  1.7005000E-02   -5.9103227E-15
  1.7039999E-02   -8.7136321E-15
  1.7075000E-02    3.8399150E-15
  1.7109999E-02    1.1734013E-14
  1.7145000E-02   -2.6729205E-16
  1.7180000E-02   -1.3979505E-14
  1.7215000E-02   -4.7867683E-15
  1.7250000E-02    1.4751182E-14
  1.7285001E-02    1.1029364E-14
  1.7320000E-02   -1.3339143E-14
  1.7355001E-02   -1.7843013E-14
  1.7390000E-02    9.1473739E-15
  1.7425001E-02    2.4274419E-14
  1.7460000E-02   -1.8447666E-15
  1.7495001E-02   -2.9081135E-14
  1.7530000E-02   -8.4770973E-15
  1.7565001E-02    3.0848347E-14
  1.7600000E-02    2.1166395E-14
  1.7635001E-02   -2.8180017E-14
  1.7670000E-02   -3.4926841E-14
  1.7704999E-02    1.9954860E-14
  1.7740000E-02    4.7822664E-14
  1.7774999E-02   -5.6210263E-15
  1.7810000E-02   -5.7400536E-14
  1.7844999E-02   -1.4512339E-14
  1.7880000E-02    6.0948161E-14
  1.7914999E-02    3.9041822E-14
  1.7950000E-02   -5.5885035E-14
  1.7984999E-02   -6.5355849E-14
  1.8020000E-02    4.0256356E-14
  1.8054999E-02    8.9703764E-14
  1.8090000E-02   -1.3273966E-14
  1.8124999E-02   -1.0748806E-13
  1.8160000E-02   -2.4186014E-14
  1.8195000E-02    1.1380224E-13
  1.8230001E-02    6.9225082E-14
  1.8265000E-02   -1.0418176E-13
  1.8300001E-02   -1.1682036E-13
  1.8335000E-02    7.5502626E-14
  1.8370001E-02    1.6006707E-13
  1.8405000E-02   -2.6901084E-14
  1.8440001E-02   -1.9082136E-13
  1.8475000E-02   -3.9442953E-14
  1.8510001E-02    2.0074277E-13
  1.8545000E-02    1.1784234E-13
  1.8580001E-02   -1.8264962E-13
  1.8615000E-02   -1.9912528E-13
  1.8650001E-02    1.3204302E-13
  1.8685000E-02    2.7126795E-13
  1.8719999E-02   -4.8548219E-14
  1.8755000E-02   -3.2069378E-13
  1.8789999E-02   -6.2985560E-14
  1.8825000E-02    3.3415257E-13
  1.8859999E-02    1.9202298E-13
  1.8895000E-02   -3.0101076E-13
  1.8929999E-02   -3.2274869E-13
  1.8965000E-02    2.1561819E-13
  1.8999999E-02    4.3547509E-13
  1.9035000E-02   -7.9372835E-14
  1.9069999E-02   -5.0901812E-13
  1.9105000E-02   -9.7967316E-14
  1.9140000E-02    5.2385895E-13
  1.9175000E-02    2.9810383E-13
  1.9210000E-02   -4.6569720E-13
  1.9245001E-02   -4.9545296E-13
  1.9280000E-02    3.2882098E-13
  1.9315001E-02    6.5985721E-13
  1.9350000E-02   -1.1870393E-13
  1.9385001E-02   -7.6061444E-13
  1.9420000E-02   -1.4679089E-13
  1.9455001E-02    7.7133699E-13
  1.9490000E-02    4.3805739E-13
  1.9525001E-02   -6.7498231E-13
  1.9560000E-02   -7.1651918E-13
  1.9595001E-02    4.6813904E-13
  1.9630000E-02    9.3931991E-13
  1.9664999E-02   -1.6377055E-13
  1.9700000E-02   -1.0655129E-12
  1.9734999E-02   -2.0835644E-13
  1.9770000E-02    1.0628568E-12
  1.9804999E-02    6.0395428E-13
  1.9840000E-02   -9.1419483E-13
  1.9874999E-02   -9.6926753E-13
  1.9910000E-02    6.2214003E-13
  1.9944999E-02    1.2483305E-12
  1.9980000E-02   -2.1117220E-13
  2.0014999E-02   -1.3915384E-12
  2.0050000E-02   -2.7369171E-13
  2.0085000E-02    1.3641510E-12
  2.0120000E-02    7.7171098E-13
  2.0155000E-02   -1.1533049E-12
  2.0190001E-02   -1.2143848E-12
  2.0225000E-02    7.7208254E-13
  2.0260001E-02    1.5354033E-12
  2.0295000E-02   -2.5977896E-13
  2.0330001E-02   -1.6811855E-12
  2.0365000E-02   -3.2219561E-13
  2.0400001E-02    1.6201270E-12
  2.0435000E-02    8.9828324E-13
  2.0470001E-02   -1.3489406E-12
  2.0505000E-02   -1.3896618E-12
  2.0540001E-02    8.9471117E-13
  2.0575000E-02    1.7262305E-12
  2.0609999E-02   -3.1214853E-13
  2.0645000E-02   -1.8577659E-12
  2.0679999E-02   -3.2375987E-13
  2.0715000E-02    1.7623772E-12
  2.0749999E-02    9.2874677E-13
  2.0785000E-02   -1.4505624E-12
  2.0819999E-02   -1.4221102E-12
  2.0855000E-02    9.6402758E-13
  2.0889999E-02    1.7391365E-12
  2.0925000E-02   -3.6951448E-13
  2.0959999E-02   -1.8410980E-12
  2.0995000E-02   -2.5154127E-13
  2.1029999E-02    1.7210815E-12
  2.1065000E-02    8.1567153E-13
  2.1100000E-02   -1.4048237E-12
  2.1135001E-02   -1.2505457E-12
  2.1170000E-02    9.4596379E-13
  2.1205001E-02    1.5060402E-12
  2.1240000E-02   -4.1689127E-13
  2.1275001E-02   -1.5614953E-12
  2.1310000E-02   -1.0314614E-13
  2.1345001E-02    1.4282773E-12
  2.1380000E-02    5.4097953E-13
  2.1415001E-02   -1.1472402E-12
  2.1450000E-02   -8.4157692E-13
  2.1485001E-02    7.8126790E-13
  2.1520000E-02    9.7725246E-13
  2.1555001E-02   -4.0376198E-13
  2.1590000E-02   -9.5192972E-13
  2.1624999E-02    8.5620130E-14
  2.1660000E-02    8.0029370E-13
  2.1694999E-02    1.1739108E-13
  2.1730000E-02   -5.8249060E-13
  2.1764999E-02   -1.7609534E-13
  2.1800000E-02    3.7391306E-13
  2.1834999E-02    9.6353779E-14
  2.1870000E-02   -2.4995091E-13
  2.1904999E-02    7.9179108E-14
  2.1940000E-02    2.6923421E-13
  2.1974999E-02   -2.7681535E-13
  2.2010000E-02   -4.5935521E-13
  2.2045000E-02    4.0267542E-13
  2.2080000E-02    8.0512533E-13
  2.2115000E-02   -3.5896066E-13
  2.2150001E-02   -1.2405922E-12
  2.2185000E-02    6.7979368E-14
  2.2220001E-02    1.6519817E-12
  2.2255000E-02    5.0115343E-13
  2.2290001E-02   -1.8963479E-12
  2.2325000E-02   -1.3148538E-12
  2.2360001E-02    1.8281951E-12
  2.2395000E-02    2.2681386E-12
  2.2430001E-02   -1.3285198E-12
  2.2465000E-02   -3.1843165E-12
  2.2500001E-02    3.4233353E-13
  2.2535000E-02    3.8318064E-12
  2.2569999E-02    1.0808749E-12
  2.2605000E-02   -3.9715058E-12
  2.2639999E-02   -2.7711832E-12
  2.2675000E-02    3.4172248E-12
  2.2709999E-02    4.4566781E-12
  2.2745000E-02   -2.0814910E-12
  2.2779999E-02   -5.7940605E-12
  2.2815000E-02    1.5703728E-14
  2.2849999E-02    6.4124457E-12
  2.2885000E-02    2.5465216E-12
  2.2919999E-02   -6.0026203E-12
  2.2955000E-02   -5.1911721E-12
  2.2990000E-02    4.4273695E-12
  2.3025000E-02    7.4068503E-12
  2.3060000E-02   -1.7734577E-12
  2.3095001E-02   -8.6864032E-12
  2.3130000E-02   -1.6520096E-12
  2.3165001E-02    8.5997407E-12
  2.3200000E-02    5.3148068E-12
  2.3235001E-02   -6.9047554E-12
  2.3270000E-02   -8.4890307E-12
  2.3305001E-02    3.7029932E-12
  2.3340000E-02    1.0440005E-11
  2.3375001E-02    5.2765789E-13
  2.3410000E-02   -1.0644465E-11
  2.3445001E-02   -5.0704714E-12
  2.3480000E-02    8.8631325E-12
  2.3514999E-02    9.0741113E-12
  2.3550000E-02   -5.1778547E-12
  2.3584999E-02   -1.1602015E-11
  2.3620000E-02    1.4828115E-13
  2.3654999E-02    1.1890528E-11
  2.3690000E-02    5.1823212E-12
  2.3724999E-02   -9.7237027E-12
  2.3760000E-02   -9.6585882E-12
  2.3794999E-02    5.4551919E-12
  2.3830000E-02    1.2337813E-11
  2.3864999E-02    2.2813007E-13
  2.3900000E-02   -1.2460608E-11
  2.3934999E-02   -6.2477645E-12
  2.3970000E-02    9.6135903E-12
  2.4005000E-02    1.1064406E-11
  2.4040001E-02   -4.2724613E-12
  2.4075000E-02   -1.3304719E-11
  2.4110001E-02   -2.2225045E-12
  2.4145000E-02    1.2461370E-11
  2.4180001E-02    8.4571673E-12
  2.4215000E-02   -8.6330977E-12
  2.4250001E-02   -1.3172232E-11
  2.4285000E-02    2.1846383E-12
  2.4320001E-02    1.4849271E-11
  2.4355000E-02    5.5720368E-12
  2.4390001E-02   -1.2372486E-11
  2.4425000E-02   -1.2216235E-11
  2.4460001E-02    6.3384740E-12
  2.4495000E-02    1.5814756E-11
  2.4529999E-02    1.5053642E-12
  2.4565000E-02   -1.5803801E-11
  2.4599999E-02   -9.8027220E-12
  2.4635000E-02    1.1731832E-11
  2.4669999E-02    1.6924349E-11
  2.4705000E-02   -3.2608536E-12
  2.4739999E-02   -1.9913425E-11
  2.4775000E-02   -7.5751272E-12
  2.4809999E-02    1.6845166E-11
  2.4845000E-02    1.6876354E-11
  2.4879999E-02   -9.0766405E-12
  2.4915000E-02   -2.2545195E-11
  2.4950000E-02   -1.3830414E-12
  2.4985000E-02    2.4139890E-11
  2.5020000E-02    1.3952628E-11
  2.5055001E-02   -1.9546790E-11
  2.5090000E-02   -2.5901887E-11
  2.5125001E-02    7.3208618E-12
  2.5160000E-02    3.1454759E-11
  2.5195001E-02    8.4082455E-12
  2.5230000E-02   -2.8428027E-11
  2.5265001E-02   -2.1923930E-11
  2.5300000E-02    1.9892454E-11
  2.5335001E-02    3.2377226E-11
  2.5370000E-02   -6.6162145E-12
  2.5405001E-02   -3.8818934E-11
  2.5440000E-02   -1.2722937E-11
  2.5474999E-02    3.4940384E-11
  2.5510000E-02    3.1967193E-11
  2.5544999E-02   -1.8815611E-11
  2.5580000E-02   -4.1215864E-11
  2.5614999E-02   -8.7080359E-13
  2.5650000E-02    4.0673822E-11
  2.5684999E-02    1.8409640E-11
  2.5720000E-02   -3.5298580E-11
  2.5754999E-02   -3.6973501E-11
  2.5790000E-02    2.0332942E-11
  2.5824999E-02    5.1841777E-11
  2.5860000E-02    7.3109400E-12
  2.5895000E-02   -4.9393094E-11
  2.5930000E-02   -3.3251828E-11
  2.5965000E-02    3.1594581E-11
  2.6000001E-02    4.5409509E-11
  2.6035000E-02   -1.3702686E-11
  2.6070001E-02   -5.2259589E-11
  2.6105000E-02   -5.5981231E-12
  2.6140001E-02    5.6680164E-11
  2.6175000E-02    3.5201807E-11
  2.6210001E-02   -4.1839775E-11
  2.6245000E-02   -5.8457836E-11
  2.6280001E-02    9.0714944E-12
  2.6315000E-02    5.5695570E-11
  2.6350001E-02    1.3646253E-11
  2.6385000E-02   -4.3564707E-11
  2.6419999E-02   -2.2978319E-11
  2.6455000E-02    3.9666128E-11
  2.6489999E-02    4.1383914E-11
  2.6525000E-02   -2.2979176E-11
  2.6559999E-02   -5.6641476E-11
  2.6595000E-02   -1.3673070E-11
  2.6629999E-02    3.8350045E-11
  2.6665000E-02    3.0582231E-11
  2.6699999E-02   -9.7791584E-12
  2.6735000E-02   -1.7589463E-11
  2.6769999E-02    8.8818501E-12
  2.6805000E-02    1.8427915E-11
  2.6839999E-02   -7.9150905E-12
  2.6875000E-02   -3.2940366E-11
  2.6910000E-02   -2.1695921E-11
  2.6945001E-02    1.2635780E-11
  2.6980000E-02    3.1774753E-11