 -4.8000002E-03    1.0000000E-24
 -4.7650002E-03    1.0000000E-24
 -4.7300002E-03    1.0000002E-24
 -4.6950001E-03    1.0000002E-24
 -4.6600001E-03    1.0000002E-24
 -4.6250001E-03    1.0000000E-24
 -4.5900000E-03    1.0000000E-24
 -4.5550000E-03    1.0000002E-24
 -4.5200000E-03    1.0000001E-24
 -4.4849999E-03    9.9999992E-25
 -4.4499999E-03    1.0000001E-24
 -4.4149999E-03    1.0000001E-24
 -4.3799998E-03    1.0000000E-24
 -4.3449998E-03    1.0000001E-24
 -4.3100002E-03    1.0000001E-24
 -4.2750002E-03    1.0000002E-24
 -4.2400002E-03    1.0000001E-24
 -4.2050001E-03    9.9999992E-25
 -4.1700001E-03    9.9999972E-25
 -4.1350001E-03    1.0000000E-24
 -4.1000000E-03    1.0000005E-24
 -4.0650000E-03    1.0000004E-24
 -4.0300000E-03    9.9999982E-25
 -3.9949999E-03    9.9999972E-25
 -3.9599999E-03    1.0000001E-24
 -3.9249999E-03    1.0000002E-24
 -3.8900001E-03    1.0000001E-24
 -3.8550000E-03    1.0000000E-24
 -3.8200000E-03    1.0000000E-24
 -3.7849999E-03    1.0000001E-24
 -3.7499999E-03    1.0000000E-24
 -3.7150001E-03    1.0000001E-24
 -3.6800001E-03    1.0000006E-24
 -3.6450000E-03    1.0000005E-24
 -3.6100000E-03    9.9999972E-25
 -3.5750000E-03    9.9999972E-25
 -3.5399999E-03    1.0000003E-24
 -3.5049999E-03    1.0000001E-24
 -3.4700001E-03    9.9999972E-25
 -3.4350001E-03    1.0000001E-24
 -3.4000000E-03    1.0000004E-24
 -3.3650000E-03    9.9999992E-25
 -3.3300000E-03    9.9999982E-25
 -3.2949999E-03    1.0000003E-24
 -3.2599999E-03    1.0000002E-24
 -3.2250001E-03    9.9999963E-25
 -3.1900001E-03    9.9999963E-25
 -3.1550000E-03    1.0000002E-24
 -3.1200000E-03    1.0000006E-24
 -3.0850000E-03    1.0000004E-24
 -3.0499999E-03    1.0000002E-24
 -3.0149999E-03    9.9999972E-25
 -2.9800001E-03    9.9999943E-25
 -2.9450001E-03    9.9999982E-25
 -2.9100000E-03    1.0000006E-24
 -2.8750000E-03    1.0000007E-24
 -2.8400000E-03    1.0000002E-24
 -2.8049999E-03    1.0000000E-24
 -2.7699999E-03    1.0000002E-24
 -2.7350001E-03    1.0000000E-24
 -2.7000001E-03    9.9999972E-25
 -2.6650000E-03    1.0000001E-24
 -2.6300000E-03    1.0000004E-24
 -2.5950000E-03    1.0000001E-24
 -2.5599999E-03    9.9999992E-25
 -2.5249999E-03    9.9999992E-25
 -2.4900001E-03    1.0000004E-24
 -2.4550001E-03    1.0000005E-24
 -2.4200000E-03    1.0000002E-24
 -2.3850000E-03    1.0000000E-24
 -2.3500000E-03    9.9999982E-25
 -2.3149999E-03    9.9999992E-25
 -2.2799999E-03    1.0000005E-24
 -2.2450001E-03    1.0000005E-24
 -2.2100001E-03    1.0000002E-24
 -2.1750000E-03    1.0000002E-24
 -2.1400000E-03    9.9999992E-25
 -2.1050000E-03    9.9999923E-25
 -2.0699999E-03    9.9999923E-25
 -2.0349999E-03    1.0000002E-24
 -2.0000001E-03    1.0000006E-24
 -1.9650001E-03    1.0000004E-24
 -1.9300000E-03    1.0000006E-24
 -1.8950000E-03    1.0000007E-24
 -1.8600000E-03    1.0000000E-24
 -1.8250000E-03    9.9999903E-25
 -1.7900000E-03    9.9999963E-25
 -1.7550000E-03    1.0000010E-24
 -1.7199999E-03    1.0000010E-24
 -1.6850000E-03    9.9999992E-25
 -1.6500000E-03    9.9999933E-25
 -1.6150000E-03    9.9999953E-25
 -1.5800000E-03    9.9999972E-25
 -1.5450000E-03    9.9999982E-25
 -1.5100000E-03    1.0000007E-24
 -1.4750001E-03    1.0000011E-24
 -1.4400000E-03    1.0000005E-24
 -1.4050000E-03    1.0000000E-24
 -1.3700000E-03    1.0000005E-24
 -1.3350000E-03    1.0000006E-24
 -1.3000000E-03    9.9999923E-25
 -1.2650000E-03    9.9999824E-25
 -1.2300001E-03    9.9999913E-25
 -1.1950000E-03    1.0000004E-24
 -1.1600000E-03    1.0000005E-24
 -1.1250000E-03    1.0000008E-24
 -1.0900000E-03    1.0000010E-24
 -1.0550000E-03    9.9999992E-25
 -1.0200000E-03    9.9999884E-25
 -9.8500005E-04    9.9999992E-25
 -9.5000002E-04    1.0000013E-24
 -9.1499998E-04    1.0000010E-24
 -8.8000001E-04    9.9999992E-25
 -8.4499997E-04    9.9999963E-25
 -8.1000000E-04    9.9999992E-25
 -7.7500002E-04    9.9999972E-25
 -7.3999999E-04    9.9999972E-25
 -7.0500001E-04    1.0000009E-24
 -6.6999998E-04    1.0000015E-24
 -6.3500000E-04    1.0000004E-24
 -6.0000003E-04    9.9999864E-25
 -5.6499999E-04    9.9999834E-25
 -5.3000002E-04    9.9999982E-25
 -4.9499999E-04    1.0000011E-24
 -4.6000001E-04    1.0000006E-24
 -4.2500001E-04    9.9999953E-25
 -3.9000000E-04    9.9999943E-25
 -3.5500000E-04    1.0000001E-24
 -3.1999999E-04    1.0000012E-24
 -2.8499999E-04    1.0000013E-24
 -2.5000001E-04    9.9999982E-25
 -2.1499999E-04    9.9999834E-25
 -1.8000000E-04    9.9999903E-25
 -1.4500000E-04    1.0000009E-24
 -1.1000000E-04    1.0000021E-24
 -7.5000004E-05    1.0000020E-24
 -3.9999999E-05    1.0000008E-24
 -4.9999999E-06    9.9999864E-25
  2.9999999E-05    9.9999755E-25
  6.5000000E-05    9.9999903E-25
  9.9999997E-05    1.0000013E-24
  1.3499999E-04    1.0000021E-24
  1.7000000E-04    1.0000007E-24
  2.0500000E-04    9.9999903E-25
  2.3999999E-04    9.9999903E-25
  2.7500000E-04    1.0000002E-24
  3.1000000E-04    1.0000001E-24
  3.4500001E-04    9.9999874E-25
  3.8000001E-04    9.9999913E-25
  4.1499999E-04    1.0000006E-24
  4.4999999E-04    1.0000013E-24
  4.8500000E-04    1.0000013E-24
  5.2000000E-04    1.0000006E-24
  5.5499998E-04    9.9999884E-25
  5.9000001E-04    9.9999805E-25
  6.2499999E-04    9.9999972E-25
  6.6000002E-04    1.0000021E-24
  6.9500000E-04    1.0000017E-24
  7.3000003E-04    9.9999963E-25
  7.6500000E-04    9.9999933E-25
  7.9999998E-04    1.0000003E-24
  8.3500001E-04    1.0000004E-24
  8.6999999E-04    9.9999972E-25
  9.0500002E-04    1.0000001E-24
  9.4000000E-04    1.0000009E-24
  9.7499997E-04    1.0000006E-24
  1.0100000E-03    9.9999953E-25
  1.0450000E-03    9.9999874E-25
  1.0800000E-03    9.9999933E-25
  1.1150000E-03    1.0000010E-24
  1.1500000E-03    1.0000009E-24
  1.1849999E-03    9.9999903E-25
  1.2200000E-03    9.9999854E-25
  1.2550000E-03    1.0000001E-24
  1.2900000E-03    1.0000009E-24
  1.3250000E-03    1.0000000E-24
  1.3600000E-03    9.9999923E-25
  1.3950000E-03    1.0000000E-24
  1.4299999E-03    1.0000012E-24
  1.4650000E-03    1.0000012E-24
  1.5000000E-03    1.0000002E-24
  1.5350000E-03    9.9999963E-25
  1.5700000E-03    9.9999963E-25
  1.6050000E-03    9.9999943E-25
  1.6400000E-03    9.9999953E-25
  1.6749999E-03    1.0000002E-24
  1.7100000E-03    1.0000010E-24
  1.7450000E-03    1.0000011E-24
  1.7800000E-03    1.0000009E-24
  1.8150000E-03    9.9999982E-25
  1.8500000E-03    9.9999844E-25
  1.8850000E-03    9.9999903E-25
  1.9200000E-03    1.0000012E-24
  1.9550000E-03    1.0000017E-24
  1.9900000E-03    9.9999972E-25
  2.0250001E-03    9.9999874E-25
  2.0600001E-03    1.0000001E-24
  2.0949999E-03    1.0000013E-24
  2.1299999E-03    1.0000007E-24
  2.1650000E-03    9.9999943E-25
  2.2000000E-03    9.9999923E-25
  2.2350000E-03    1.0000005E-24
  2.2700001E-03    1.0000013E-24
  2.3050001E-03    1.0000002E-24
  2.3399999E-03    9.9999893E-25
  2.3749999E-03    9.9999982E-25
  2.4100000E-03    1.0000011E-24
  2.4450000E-03    1.0000003E-24
  2.4800000E-03    9.9999943E-25
  2.5150001E-03    9.9999963E-25
  2.5500001E-03    1.0000001E-24
  2.5849999E-03    9.9999972E-25
  2.6199999E-03    9.9999972E-25
  2.6550000E-03    1.0000007E-24
  2.6900000E-03    1.0000014E-24
  2.7250000E-03    1.0000003E-24
  2.7600001E-03    9.9999864E-25
  2.7950001E-03    9.9999923E-25
  2.8299999E-03    1.0000013E-24
  2.8649999E-03    1.0000013E-24
  2.9000000E-03    9.9999963E-25
  2.9350000E-03    9.9999913E-25
  2.9700000E-03    1.0000008E-24
  3.0050001E-03    1.0000019E-24
  3.0400001E-03    1.0000004E-24
  3.0749999E-03    9.9999893E-25
  3.1099999E-03    9.9999884E-25
  3.1450000E-03    9.9999953E-25
  3.1800000E-03    1.0000003E-24
  3.2150000E-03    1.0000007E-24
  3.2500001E-03    1.0000008E-24
  3.2850001E-03    1.0000007E-24
  3.3199999E-03    1.0000003E-24
  3.3549999E-03    9.9999913E-25
  3.3900000E-03    9.9999874E-25
  3.4250000E-03    1.0000006E-24
  3.4600000E-03    1.0000030E-24
  3.4950001E-03    1.0000021E-24
  3.5300001E-03    9.9999874E-25
  3.5649999E-03    9.9999677E-25
  3.5999999E-03    9.9999854E-25
  3.6350000E-03    1.0000013E-24
  3.6700000E-03    1.0000011E-24
  3.7050000E-03    9.9999943E-25
  3.7400001E-03    9.9999982E-25
  3.7750001E-03    1.0000010E-24
  3.8099999E-03    1.0000009E-24
  3.8449999E-03    1.0000011E-24
  3.8800000E-03    1.0000015E-24
  3.9149998E-03    9.9999963E-25
  3.9499998E-03    9.9999755E-25
  3.9849998E-03    9.9999834E-25
  4.0199999E-03    1.0000002E-24
  4.0549999E-03    1.0000005E-24
  4.0899999E-03    9.9999992E-25
  4.1250000E-03    1.0000000E-24
  4.1600000E-03    1.0000004E-24
  4.1950000E-03    1.0000002E-24
  4.2300001E-03    1.0000000E-24
  4.2650001E-03    1.0000000E-24
  4.3000001E-03    1.0000000E-24
  4.3350002E-03    9.9999913E-25
  4.3700002E-03    9.9999913E-25
  4.4049998E-03    1.0000024E-24
  4.4399998E-03    1.0000042E-24
  4.4749998E-03    9.9999765E-25
  4.5099999E-03    9.9999331E-25
  4.5449999E-03    1.0000041E-24
  4.5799999E-03    1.0000125E-24
  4.6150000E-03    9.9999420E-25
  4.6500000E-03    9.9997675E-25
  4.6850001E-03    1.0000063E-24
  4.7200001E-03    1.0000420E-24
  4.7550001E-03    9.9999578E-25
  4.7900002E-03    9.9992458E-25
  4.8250002E-03    9.9999400E-25
  4.8600002E-03    1.0001336E-24
  4.8949998E-03    1.0000371E-24
  4.9299998E-03    9.9977125E-25
  4.9649999E-03    9.9988761E-25
  4.9999999E-03    1.0003746E-24
  5.0349999E-03    1.0002710E-24
  5.0700000E-03    9.9940877E-25
  5.1050000E-03    9.9941084E-25
  5.1400000E-03    1.0008952E-24
  5.1750001E-03    1.0012053E-24
  5.2100001E-03    9.9872907E-25
  5.2450001E-03    9.9766026E-25
  5.2800002E-03    1.0016462E-24
  5.3150002E-03    1.0043498E-24
  5.3500002E-03    9.9819599E-25
  5.3849998E-03    9.9222796E-25
  5.4199998E-03    1.0012522E-24
  5.4549999E-03    1.0133767E-24
  5.4899999E-03    1.0010289E-24
  5.5249999E-03    9.7782652E-25
  5.5600000E-03    9.9300805E-25
  5.5950000E-03    1.0352973E-24
  5.6300000E-03    1.0201425E-24
  5.6650001E-03    9.4634180E-25
  5.7000001E-03    9.5355899E-25
  5.7350001E-03    1.0771182E-24
  5.7700002E-03    1.0955351E-24
  5.8050002E-03    8.9721480E-25
  5.8400002E-03    8.1778908E-25
  5.8749998E-03    1.1218579E-24
  5.9099998E-03    1.3277727E-24
  5.9449999E-03    8.8582019E-25
  5.9799999E-03    4.3941569E-25
  6.0149999E-03    1.0394369E-24
  6.0500000E-03    1.9142428E-24
  6.0850000E-03    1.1761989E-24
  6.1200000E-03   -4.2056359E-25
  6.1550001E-03    3.4110661E-25
  6.1900001E-03    3.0927126E-24
  6.2250001E-03    2.6113521E-24
  6.2600002E-03   -1.8912331E-24
  6.2950002E-03   -2.3398257E-24
  6.3299998E-03    4.6626488E-24
  6.3649998E-03    7.2765114E-24
  6.3999998E-03   -3.0371951E-24
  6.4349999E-03   -9.9813987E-24
  6.4699999E-03    4.2704295E-24
  6.5049999E-03    1.9093897E-23
  6.5400000E-03    9.8433936E-25
  6.5750000E-03   -2.7184645E-23
  6.6100000E-03   -6.9758023E-24
  6.6450001E-03    4.2430929E-23
  6.6800001E-03    2.5204516E-23
  6.7150001E-03   -5.6007786E-23
  6.7500002E-03   -5.2752072E-23
  6.7850002E-03    7.3056440E-23
  6.8199998E-03    1.0443450E-22
  6.8549998E-03   -7.9077247E-23
  6.8899998E-03   -1.8049403E-22
  6.9249999E-03    6.9619266E-23
  6.9599999E-03    2.9735674E-22
  6.9949999E-03   -1.5243472E-23
  7.0300000E-03   -4.5274583E-22
  7.0650000E-03   -1.1002054E-22
  7.1000000E-03    6.5217658E-22
  7.1350001E-03    3.6405025E-22
  7.1700001E-03   -8.6763815E-22
  7.2050001E-03   -8.0641567E-22
  7.2400002E-03    1.0552187E-21
  7.2750002E-03    1.5280325E-21
  7.3099998E-03   -1.1027756E-21
  7.3449998E-03   -2.6086435E-21
  7.3799998E-03    8.3581320E-22
  7.4149999E-03    4.1242987E-21
  7.4499999E-03    4.4066815E-23
  7.4850000E-03   -6.0692370E-21
  7.5200000E-03   -1.9539068E-21
  7.5550000E-03    8.3114793E-21
  7.5900001E-03    5.4731294E-21
  7.6250001E-03   -1.0446115E-20
  7.6600001E-03   -1.1287716E-20
  7.6950002E-03    1.1670403E-20
  7.7300002E-03    2.0131941E-20
  7.7650002E-03   -1.0558642E-20
  7.7999998E-03   -3.2557693E-20
  7.8349998E-03    4.8890785E-21
  7.8699999E-03    4.8608771E-20
  7.9049999E-03    8.5517518E-21
  7.9399999E-03   -6.7220303E-20
  7.9750000E-03   -3.3963845E-20
  8.0100000E-03    8.5434141E-20
  8.0450000E-03    7.6306946E-20
  8.0800001E-03   -9.7306025E-20
  8.1150001E-03   -1.4051640E-19
  8.1500001E-03    9.2717014E-20
  8.1850002E-03    2.3002967E-19
  8.2200002E-03   -5.6178986E-20
  8.2550002E-03   -3.4421609E-19
  8.2900003E-03   -3.3827138E-20
  8.3250003E-03    4.7460491E-19
  8.3600003E-03    2.0444742E-19
  8.3950004E-03   -5.9971468E-19
  8.4300004E-03   -4.8591190E-19
  8.4650004E-03    6.7888119E-19
  8.5000005E-03    9.0578066E-19
  8.5349996E-03   -6.4579211E-19
  8.5699996E-03   -1.4785164E-18
  8.6049996E-03    4.0352517E-19
  8.6399997E-03    2.1893308E-18
  8.6749997E-03    1.7628951E-19
  8.7099997E-03   -2.9716261E-18
  8.7449998E-03   -1.2460786E-18
  8.7799998E-03    3.6789673E-18
  8.8149998E-03    2.9617260E-18
  8.8499999E-03   -4.0545515E-18
  8.8849999E-03   -5.4429208E-18
  8.9199999E-03    3.7047579E-18
  8.9550000E-03    8.7093499E-18
  8.9900000E-03   -2.0874337E-18
  9.0250000E-03   -1.2589815E-17
  9.0600001E-03   -1.4692784E-18
  9.0950001E-03    1.6606854E-17
  9.1300001E-03    7.6976419E-18
  9.1650002E-03   -1.9847927E-17
  9.2000002E-03   -1.7247904E-17
  9.2350002E-03    2.0847319E-17
  9.2700003E-03    3.0452393E-17
  9.3050003E-03   -1.7518749E-17
  9.3400003E-03   -4.6984676E-17
  9.3750004E-03    7.1968469E-18
  9.4100004E-03    6.5422079E-17
  9.4450004E-03    1.3139044E-17
  9.4799995E-03   -8.2751718E-17
  9.5149996E-03   -4.6377277E-17
  9.5499996E-03    9.3906096E-17
  9.5849996E-03    9.4450215E-17
  9.6199997E-03   -9.1470433E-17
  9.6549997E-03   -1.5713605E-16
  9.6899997E-03    6.5763923E-17
  9.7249998E-03    2.3051790E-16
  9.7599998E-03   -5.5469148E-18
  9.7949998E-03   -3.0524394E-16
  9.8299999E-03   -1.0037577E-16
  9.8649999E-03    3.6488395E-16
  9.8999999E-03    2.6042295E-16
  9.9350000E-03   -3.8486334E-16
  9.9700000E-03   -4.7627201E-16
  1.0005000E-02    3.3263672E-16
  1.0040000E-02    7.3779360E-16
  1.0075000E-02   -1.6990553E-16
  1.0110000E-02   -1.0173878E-15
  1.0145000E-02   -1.4229244E-16
  1.0180000E-02    1.2647025E-15
  1.0215000E-02    6.3495924E-16
  1.0250000E-02   -1.4032656E-15
  1.0285000E-02   -1.3187568E-15
  1.0320000E-02    1.3310809E-15
  1.0355000E-02    2.1684346E-15
  1.0390000E-02   -9.2755995E-16
  1.0425000E-02   -3.1057537E-15
  1.0460000E-02    6.9119106E-17
  1.0495000E-02    3.9840123E-15
  1.0530000E-02    1.3449014E-15
  1.0565000E-02   -4.5787810E-15
  1.0600000E-02   -3.3557859E-15
  1.0635000E-02    4.5907542E-15
  1.0670000E-02    5.9006767E-15
  1.0705000E-02   -3.6672097E-15
  1.0740000E-02   -8.7649123E-15
  1.0775000E-02    1.4479765E-15
  1.0810000E-02    1.1540766E-14
  1.0845000E-02    2.3605652E-15
  1.0880000E-02   -1.3605588E-14
  1.0915000E-02   -7.8845037E-15
  1.0950000E-02    1.4135117E-14
  1.0985000E-02    1.4962276E-14
  1.1020000E-02   -1.2168274E-14
  1.1055000E-02   -2.3021920E-14
  1.1090000E-02    6.7366233E-15
  1.1125000E-02    3.0981633E-14
  1.1160000E-02    2.9359397E-15
  1.1195000E-02   -3.7207718E-14
  1.1230000E-02   -1.7170816E-14
  1.1265000E-02    3.9568890E-14
  1.1300000E-02    3.5535177E-14
  1.1335000E-02   -3.5623549E-14
  1.1370000E-02   -5.6551677E-14
  1.1405000E-02    2.2965408E-14
  1.1440000E-02    7.7484765E-14
  1.1475000E-02    2.6992867E-16
  1.1510000E-02   -9.4286138E-14
  1.1545000E-02   -3.4769042E-14
  1.1580000E-02    1.0178615E-13
  1.1615000E-02    7.9350046E-14
  1.1650000E-02   -9.4204192E-14
  1.1685000E-02   -1.3033757E-13
  1.1720000E-02    6.6015708E-14
  1.1755000E-02    1.8116418E-13
  1.1790000E-02   -1.3152248E-14
  1.1825000E-02   -2.2237957E-13
  1.1860000E-02   -6.5568427E-14
  1.1895000E-02    2.4224156E-13
  1.1930000E-02    1.6697972E-13
  1.1965000E-02   -2.2801154E-13
  1.2000000E-02   -2.8235563E-13
  1.2035000E-02    1.6797998E-13
  1.2070000E-02    3.9679997E-13
  1.2105000E-02   -5.4105859E-14
  1.2140000E-02   -4.8959637E-13
  1.2175000E-02   -1.1501879E-13
  1.2210000E-02    5.3582057E-13
  1.2245000E-02    3.3134368E-13
  1.2280000E-02   -5.0937293E-13
  1.2315000E-02   -5.7528483E-13
  1.2350000E-02    3.8735887E-13
  1.2385000E-02    8.1507891E-13
  1.2420000E-02   -1.5544709E-13
  1.2455000E-02   -1.0081992E-12
  1.2490000E-02   -1.8649042E-13
  1.2525000E-02    1.1052716E-12
  1.2560000E-02    6.1943793E-13
  1.2595000E-02   -1.0565895E-12
  1.2630000E-02   -1.1021705E-12
  1.2665000E-02    8.2084036E-13
  1.2700000E-02    1.5712475E-12
  1.2735000E-02   -3.7511704E-13
  1.2770000E-02   -1.9450270E-12
  1.2805000E-02   -2.7524998E-13
  1.2840000E-02    2.1322020E-12
  1.2875000E-02    1.0889148E-12
  1.2910000E-02   -2.0446205E-12
  1.2945000E-02   -1.9848116E-12
  1.2980000E-02    1.6133164E-12
  1.3015000E-02    2.8443621E-12
  1.3050000E-02   -8.0575450E-13
  1.3085000E-02   -3.5208509E-12
  1.3120000E-02   -3.5844786E-13
  1.3155000E-02    3.8562326E-12
  1.3190000E-02    1.7965210E-12
  1.3225000E-02   -3.7043975E-12
  1.3260000E-02   -3.3594330E-12
  1.3295000E-02    2.9584657E-12
  1.3330000E-02    4.8392345E-12
  1.3365000E-02   -1.5783984E-12
  1.3400000E-02   -5.9881787E-12
  1.3435000E-02   -3.8577881E-13
  1.3470000E-02    6.5491991E-12
  1.3505000E-02    2.7801585E-12
  1.3540000E-02   -6.2952456E-12
  1.3575000E-02   -5.3471459E-12
  1.3610000E-02    5.0728354E-12
  1.3645000E-02    7.7428116E-12
  1.3680000E-02   -2.8434791E-12
  1.3715000E-02   -9.5724782E-12
  1.3750000E-02   -2.8459621E-13
  1.3785000E-02    1.0442538E-11
  1.3820000E-02    4.0418910E-12
  1.3855000E-02   -1.0023370E-11
  1.3890000E-02   -8.0065416E-12
  1.3925000E-02    8.1150503E-12
  1.3960000E-02    1.1640180E-11
  1.3995000E-02   -4.7052817E-12
  1.4030000E-02   -1.4350362E-11
  1.4065000E-02    8.0540390E-15
  1.4100000E-02    1.5574405E-11
  1.4135000E-02    5.5275957E-12
  1.4170000E-02   -1.4874605E-11
  1.4205000E-02   -1.1246349E-11
  1.4240000E-02    1.2030581E-11
  1.4275000E-02    1.6355348E-11
  1.4310000E-02   -7.1118745E-12
  1.4345000E-02   -2.0028536E-11
  1.4380000E-02    5.1409235E-13
  1.4415000E-02    2.1534566E-11
  1.4450000E-02    7.0546047E-12
  1.4485000E-02   -2.0369408E-11
  1.4520000E-02   -1.4642976E-11
  1.4555000E-02    1.6370265E-11
  1.4590000E-02    2.1178866E-11
  1.4625000E-02   -9.7866645E-12
  1.4660000E-02   -2.5629953E-11
  1.4695000E-02    1.2886173E-12
  1.4730000E-02    2.7178648E-11
  1.4765000E-02    8.0991967E-12
  1.4800000E-02   -2.5379716E-11
  1.4835000E-02   -1.7134972E-11
  1.4870000E-02    2.0267267E-11
  1.4905000E-02    2.4551028E-11
  1.4940000E-02   -1.2383847E-11
  1.4975000E-02   -2.9266808E-11
  1.5010000E-02    2.7172028E-12
  1.5045000E-02    3.0582804E-11
  1.5080000E-02    7.4513659E-12
  1.5115000E-02   -2.8313791E-11
  1.5150000E-02   -1.6763415E-11
  1.5185000E-02    2.2828519E-11
  1.5220000E-02    2.4023769E-11
  1.5255000E-02   -1.4980248E-11
  1.5290000E-02   -2.8414097E-11
  1.5325000E-02    5.9367216E-12
  1.5360000E-02    2.9629982E-11
  1.5395000E-02    3.0566986E-12
  1.5430000E-02   -2.7906382E-11
  1.5465000E-02   -1.0927643E-11
  1.5500000E-02    2.3921729E-11
  1.5535000E-02    1.6981069E-11
  1.5570000E-02   -1.8600890E-11
  1.5605000E-02   -2.1005322E-11
  1.5640000E-02    1.2864177E-11
  1.5675001E-02    2.3249935E-11
  1.5710000E-02   -7.3869912E-12
  1.5745001E-02   -2.4276910E-11
  1.5780000E-02    2.4367008E-12
  1.5814999E-02    2.4722670E-11
  1.5850000E-02    2.1637386E-12
  1.5884999E-02   -2.5035115E-11
  1.5920000E-02   -6.9281057E-12
  1.5954999E-02    2.5261584E-11
  1.5990000E-02    1.2476557E-11
  1.6024999E-02   -2.4955569E-11
  1.6060000E-02   -1.9240842E-11
  1.6094999E-02    2.3242522E-11
  1.6130000E-02    2.7187684E-11
  1.6164999E-02   -1.9042179E-11
  1.6200000E-02   -3.5644598E-11
  1.6235000E-02    1.1399551E-11
  1.6270000E-02    4.3287950E-11
  1.6305000E-02    1.5359747E-13
  1.6340001E-02   -4.8315095E-11
  1.6375000E-02   -1.5295794E-11
  1.6410001E-02    4.8782433E-11
  1.6445000E-02    3.2757044E-11
  1.6480001E-02   -4.3047396E-11
  1.6515000E-02   -5.0364098E-11
  1.6550001E-02    3.0217020E-11
  1.6585000E-02    6.5298190E-11
  1.6620001E-02   -1.0502910E-11
  1.6655000E-02   -7.4523179E-11
  1.6690001E-02   -1.4589090E-11
  1.6725000E-02    7.5320028E-11
  1.6759999E-02    4.2280967E-11
  1.6795000E-02   -6.5851102E-11
  1.6829999E-02   -6.8785436E-11
  1.6865000E-02    4.5653738E-11
  1.6899999E-02    8.9794637E-11
  1.6935000E-02   -1.5959407E-11
  1.6969999E-02   -1.0112349E-10
  1.7005000E-02   -2.0218745E-11
  1.7039999E-02    9.9428923E-11
  1.7075000E-02    5.8259390E-11
  1.7109999E-02   -8.2938212E-11
  1.7145000E-02   -9.2413535E-11
  1.7180000E-02    5.2072562E-11
  1.7215000E-02    1.1661133E-10
  1.7250000E-02   -9.7890541E-12
  1.7285001E-02   -1.2549765E-10
  1.7320000E-02   -3.8488695E-11
  1.7355001E-02    1.1553051E-10
  1.7390000E-02    8.5395531E-11
  1.7425001E-02   -8.5988737E-11
  1.7460000E-02   -1.2264233E-10
  1.7495001E-02    3.9675260E-11
  1.7530000E-02    1.4250648E-10
  1.7565001E-02    1.7004636E-11
  1.7600000E-02   -1.3953103E-10
  1.7635001E-02   -7.4787343E-11
  1.7670000E-02    1.1199883E-10
  1.7704999E-02    1.2302886E-10
  1.7740000E-02   -6.2847998E-11
  1.7774999E-02   -1.5171725E-10
  1.7810000E-02   -2.2550340E-13
  1.7844999E-02    1.5377882E-10
  1.7880000E-02    6.5799637E-11
  1.7914999E-02   -1.2711657E-10
  1.7950000E-02   -1.2094351E-10
  1.7984999E-02    7.5603329E-11
  1.8020000E-02    1.5404276E-10
  1.8054999E-02   -8.6868342E-12
  1.8090000E-02   -1.5748747E-10
  1.8124999E-02   -6.0236850E-11
  1.8160000E-02    1.2978382E-10
  1.8195000E-02    1.1657982E-10
  1.8230001E-02   -7.6527409E-11
  1.8265000E-02   -1.4815750E-10
  1.8300001E-02    9.4343830E-12
  1.8335000E-02    1.4845000E-10
  1.8370001E-02    5.6524632E-11
  1.8405000E-02   -1.1824056E-10
  1.8440001E-02   -1.0672593E-10
  1.8475000E-02    6.5478158E-11
  1.8510001E-02    1.3036444E-10
  1.8545000E-02   -3.6360205E-12
  1.8580001E-02   -1.2347473E-10
  1.8615000E-02   -5.1717016E-11
  1.8650001E-02    9.0331964E-11
  1.8685000E-02    8.7549523E-11
  1.8719999E-02   -4.1932881E-11
  1.8755000E-02   -9.6969023E-11
  1.8789999E-02   -7.5640917E-12
  1.8825000E-02    8.0492536E-11
  1.8859999E-02    4.4511513E-11
  1.8895000E-02   -4.5789466E-11
  1.8929999E-02   -5.9378759E-11
  1.8965000E-02    5.8856969E-12
  1.8999999E-02    5.0142016E-11
  1.9035000E-02    2.5226430E-11
  1.9069999E-02   -2.2959693E-11
  1.9105000E-02   -3.7712729E-11
  1.9140000E-02   -1.0914004E-11
  1.9175000E-02    2.8243911E-11
  1.9210000E-02    3.8887307E-11
  1.9245001E-02   -3.8659221E-14
  1.9280000E-02   -4.9777977E-11
  1.9315001E-02   -3.7248354E-11
  1.9350000E-02    3.7512129E-11
  1.9385001E-02    6.9779717E-11
  1.9420000E-02   -4.5847714E-12
  1.9455001E-02   -8.5454310E-11
  1.9490000E-02   -3.9405153E-11
  1.9525001E-02    7.8428521E-11
  1.9560000E-02    8.2730066E-11
  1.9595001E-02   -4.8577795E-11
  1.9630000E-02   -1.1367762E-10
  1.9664999E-02    1.2245495E-12
  1.9700000E-02    1.2208234E-10
  1.9734999E-02    5.1714012E-11
  1.9770000E-02   -1.0452549E-10
  1.9804999E-02   -9.5745217E-11
  1.9840000E-02    6.7031290E-11
  1.9874999E-02    1.2136585E-10
  1.9910000E-02   -2.0183459E-11
  1.9944999E-02   -1.2622511E-10
  1.9980000E-02   -2.7067727E-11
  2.0014999E-02    1.0988731E-10
  2.0050000E-02    6.3458815E-11
  2.0085000E-02   -7.9469396E-11
  2.0120000E-02   -8.2789706E-11
  2.0155000E-02    4.4382994E-11
  2.0190001E-02    8.2080953E-11
  2.0225000E-02   -2.0743990E-11
  2.0260001E-02   -7.7320692E-11
  2.0295000E-02    1.4002076E-12
  2.0330001E-02    6.4213336E-11
  2.0365000E-02    1.3252442E-12
  2.0400001E-02   -6.4738215E-11
  2.0435000E-02   -1.1491239E-11
  2.0470001E-02    5.6976330E-11
  2.0505000E-02    2.0024191E-12
  2.0540001E-02   -8.5419991E-11
  2.0575000E-02   -3.8170175E-11
  2.0609999E-02    7.3126574E-11
  2.0645000E-02    4.0672438E-11
  2.0679999E-02   -1.0743979E-10
  2.0715000E-02   -1.2304559E-10
  2.0749999E-02    3.6554138E-11
  2.0785000E-02    9.9289882E-11
  2.0819999E-02   -7.4909912E-11
  2.0855000E-02   -2.2451940E-10
  2.0889999E-02   -9.7815804E-11
  2.0925000E-02    1.0198008E-10
  2.0959999E-02    1.6971011E-11
  2.0995000E-02   -2.6351671E-10
  2.1029999E-02   -3.1247821E-10
  2.1065000E-02   -6.3691323E-11
  2.1100000E-02    4.5725722E-11
  2.1135001E-02   -2.2613054E-10
  2.1170000E-02   -5.0849724E-10
  2.1205001E-02   -4.0024872E-10
  2.1240000E-02   -1.3411329E-10
  2.1275001E-02   -2.2477081E-10
  2.1310000E-02   -6.4091632E-10
  2.1345001E-02   -8.4164442E-10
  2.1380000E-02   -6.3898115E-10
  2.1415001E-02   -5.0712329E-10
  2.1450000E-02   -8.3622398E-10
  2.1485001E-02   -1.3175600E-09
  2.1520000E-02   -1.4357110E-09
  2.1555001E-02   -1.2830432E-09
  2.1590000E-02   -1.4134643E-09
  2.1624999E-02   -1.9805071E-09
  2.1660000E-02   -2.5165496E-09
  2.1694999E-02   -2.6773908E-09
  2.1730000E-02   -2.7712728E-09
  2.1764999E-02   -3.2683494E-09
  2.1800000E-02   -4.0900883E-09
  2.1834999E-02   -4.7744950E-09
  2.1870000E-02   -5.2095710E-09
  2.1904999E-02   -5.7841332E-09
  2.1940000E-02   -6.7806138E-09
  2.1974999E-02   -7.9920941E-09
  2.2010000E-02   -9.1030925E-09
  2.2045000E-02   -1.0174232E-08
  2.2080000E-02   -1.1516487E-08
  2.2115000E-02   -1.3243560E-08
  2.2150001E-02   -1.5189999E-08
  2.2185000E-02   -1.7219314E-08
  2.2220001E-02   -1.9415818E-08
  2.2255000E-02   -2.1957611E-08
  2.2290001E-02   -2.4927104E-08
  2.2325000E-02   -2.8282122E-08
  2.2360001E-02   -3.1956244E-08
  2.2395000E-02   -3.5973066E-08
  2.2430001E-02   -4.0475534E-08
  2.2465000E-02   -4.5617522E-08
  2.2500001E-02   -5.1423658E-08
  2.2535000E-02   -5.7819189E-08
  2.2569999E-02   -6.4818849E-08
  2.2605000E-02   -7.2607143E-08
  2.2639999E-02   -8.1382510E-08
  2.2675000E-02   -9.1190536E-08
  2.2709999E-02   -1.0198574E-07
  2.2745000E-02   -1.1382647E-07
  2.2779999E-02   -1.2693332E-07
  2.2815000E-02   -1.4154159E-07
  2.2849999E-02   -1.5774509E-07
  2.2885000E-02   -1.7553874E-07
  2.2919999E-02   -1.9501803E-07
  2.2955000E-02   -2.1646929E-07
  2.2990000E-02   -2.4020136E-07
  2.3025000E-02   -2.6634578E-07
  2.3060000E-02   -2.9494095E-07
  2.3095001E-02   -3.2618883E-07
  2.3130000E-02   -3.6047547E-07
  2.3165001E-02   -3.9812156E-07
  2.3200000E-02   -4.3928210E-07
  2.3235001E-02   -4.8415046E-07
  2.3270000E-02   -5.3309543E-07
  2.3305001E-02   -5.8651472E-07
  2.3340000E-02   -6.4471368E-07
  2.3375001E-02   -7.0802878E-07
  2.3410000E-02   -7.7690964E-07
  2.3445001E-02   -8.5177061E-07
  2.3480000E-02   -9.3292925E-07
  2.3514999E-02   -1.0208229E-06
  2.3550000E-02   -1.1161138E-06
  2.3584999E-02   -1.2194118E-06
  2.3620000E-02   -1.3310666E-06
  2.3654999E-02   -1.4514516E-06
  2.3690000E-02   -1.5813170E-06
  2.3724999E-02   -1.7215905E-06
  2.3760000E-02   -1.8728909E-06
  2.3794999E-02   -2.0355481E-06
  2.3830000E-02   -2.2101447E-06
  2.3864999E-02   -2.3977511E-06
  2.3900000E-02   -2.5994609E-06
  2.3934999E-02   -2.8159084E-06
  2.3970000E-02   -3.0475248E-06
  2.4005000E-02   -3.2951668E-06
  2.4040001E-02   -3.5601702E-06
  2.4075000E-02   -3.8437074E-06
  2.4110001E-02   -4.1464123E-06
  2.4145000E-02   -4.4688800E-06
  2.4180001E-02   -4.8122915E-06
  2.4215000E-02   -5.1781808E-06
  2.4250001E-02   -5.5677019E-06
  2.4285000E-02   -5.9815407E-06
  2.4320001E-02   -6.4205842E-06
  2.4355000E-02   -6.8862664E-06
  2.4390001E-02   -7.3800998E-06
  2.4425000E-02   -7.9031788E-06
  2.4460001E-02   -8.4563771E-06
  2.4495000E-02   -9.0408321E-06
  2.4529999E-02   -9.6580034E-06
  2.4565000E-02   -1.0309329E-05
  2.4599999E-02   -1.0995988E-05
  2.4635000E-02   -1.1718992E-05
  2.4669999E-02   -1.2479451E-05
  2.4705000E-02   -1.3278749E-05
  2.4739999E-02   -1.4118347E-05
  2.4775000E-02   -1.4999380E-05
  2.4809999E-02   -1.5922669E-05
  2.4845000E-02   -1.6889235E-05
  2.4879999E-02   -1.7900527E-05
  2.4915000E-02   -1.8957891E-05
  2.4950000E-02   -2.0062038E-05
  2.4985000E-02   -2.1213489E-05
  2.5020000E-02   -2.2413311E-05
  2.5055001E-02   -2.3662844E-05
  2.5090000E-02   -2.4962830E-05
  2.5125001E-02   -2.6313379E-05
  2.5160000E-02   -2.7714892E-05
  2.5195001E-02   -2.9168385E-05
  2.5230000E-02   -3.0674597E-05
  2.5265001E-02   -3.2233416E-05
  2.5300000E-02   -3.3844513E-05
  2.5335001E-02   -3.5508081E-05
  2.5370000E-02   -3.7224552E-05
  2.5405001E-02   -3.8993738E-05
  2.5440000E-02   -4.0814764E-05
  2.5474999E-02   -4.2686868E-05
  2.5510000E-02   -4.4609667E-05
  2.5544999E-02   -4.6582620E-05
  2.5580000E-02   -4.8604557E-05
  2.5614999E-02   -5.0673887E-05
  2.5650000E-02   -5.2789143E-05
  2.5684999E-02   -5.4949043E-05
  2.5720000E-02   -5.7152003E-05
  2.5754999E-02   -5.9395818E-05
  2.5790000E-02   -6.1678009E-05
  2.5824999E-02   -6.3996289E-05
  2.5860000E-02   -6.6348286E-05
  2.5895000E-02   -6.8731148E-05
  2.5930000E-02   -7.1141636E-05
  2.5965000E-02   -7.3576550E-05
  2.6000001E-02   -7.6032586E-05
  2.6035000E-02   -7.8506026E-05
  2.6070001E-02   -8.0992853E-05
  2.6105000E-02   -8.3489125E-05
  2.6140001E-02   -8.5990767E-05
  2.6175000E-02   -8.8493114E-05
  2.6210001E-02   -9.0991241E-05
  2.6245000E-02   -9.3480528E-05
  2.6280001E-02   -9.5956369E-05
  2.6315000E-02   -9.8413475E-05
  2.6350001E-02   -1.0084600E-04
  2.6385000E-02   -1.0324852E-04
  2.6419999E-02   -1.0561603E-04
  2.6455000E-02   -1.0794299E-04
  2.6489999E-02   -1.1022302E-04
  2.6525000E-02   -1.1244989E-04
  2.6559999E-02   -1.1461809E-04
  2.6595000E-02   -1.1672224E-04
  2.6629999E-02   -1.1875609E-04
  2.6665000E-02   -1.2071290E-04
  2.6699999E-02   -1.2258651E-04
  2.6735000E-02   -1.2437168E-04
  2.6769999E-02   -1.2606289E-04
  2.6805000E-02   -1.2765368E-04
  2.6839999E-02   -1.2913758E-04
  2.6875000E-02   -1.3050922E-04
  2.6910000E-02   -1.3176398E-04
  2.6945001E-02   -1.3289650E-04
  2.6980000E-02   -1.3390074E-04