 -4.8000002E-03    1.0000000E-24
 -4.7650002E-03    1.0000000E-24
 -4.7300002E-03    1.0000001E-24
 -4.6950001E-03    1.0000002E-24
 -4.6600001E-03    1.0000001E-24
 -4.6250001E-03    1.0000001E-24
 -4.5900000E-03    1.0000001E-24
 -4.5550000E-03    1.0000001E-24
 -4.5200000E-03    1.0000001E-24
 -4.4849999E-03    1.0000002E-24
 -4.4499999E-03    1.0000001E-24
 -4.4149999E-03    1.0000003E-24
 -4.3799998E-03    1.0000003E-24
 -4.3449998E-03    1.0000001E-24
 -4.3100002E-03    1.0000000E-24
 -4.2750002E-03    1.0000001E-24
 -4.2400002E-03    1.0000001E-24
 -4.2050001E-03    9.9999982E-25
 -4.1700001E-03    9.9999992E-25
 -4.1350001E-03    1.0000002E-24
 -4.1000000E-03    1.0000003E-24
 -4.0650000E-03    9.9999992E-25
 -4.0300000E-03    9.9999963E-25
 -3.9949999E-03    9.9999982E-25
 -3.9599999E-03    1.0000002E-24
 -3.9249999E-03    1.0000005E-24
 -3.8900001E-03    1.0000002E-24
 -3.8550000E-03    1.0000000E-24
 -3.8200000E-03    1.0000000E-24
 -3.7849999E-03    1.0000001E-24
 -3.7499999E-03    1.0000004E-24
 -3.7150001E-03    1.0000004E-24
 -3.6800001E-03    1.0000000E-24
 -3.6450000E-03    9.9999982E-25
 -3.6100000E-03    1.0000000E-24
 -3.5750000E-03    1.0000000E-24
 -3.5399999E-03    9.9999992E-25
 -3.5049999E-03    1.0000002E-24
 -3.4700001E-03    1.0000005E-24
 -3.4350001E-03    1.0000002E-24
 -3.4000000E-03    9.9999992E-25
 -3.3650000E-03    1.0000002E-24
 -3.3300000E-03    1.0000001E-24
 -3.2949999E-03    9.9999972E-25
 -3.2599999E-03    9.9999963E-25
 -3.2250001E-03    1.0000001E-24
 -3.1900001E-03    1.0000004E-24
 -3.1550000E-03    1.0000002E-24
 -3.1200000E-03    1.0000001E-24
 -3.0850000E-03    9.9999992E-25
 -3.0499999E-03    1.0000000E-24
 -3.0149999E-03    1.0000003E-24
 -2.9800001E-03    1.0000002E-24
 -2.9450001E-03    1.0000001E-24
 -2.9100000E-03    1.0000000E-24
 -2.8750000E-03    1.0000000E-24
 -2.8400000E-03    1.0000000E-24
 -2.8049999E-03    1.0000001E-24
 -2.7699999E-03    1.0000003E-24
 -2.7350001E-03    1.0000003E-24
 -2.7000001E-03    9.9999992E-25
 -2.6650000E-03    9.9999963E-25
 -2.6300000E-03    1.0000000E-24
 -2.5950000E-03    1.0000009E-24
 -2.5599999E-03    1.0000010E-24
 -2.5249999E-03    1.0000002E-24
 -2.4900001E-03    9.9999963E-25
 -2.4550001E-03    9.9999992E-25
 -2.4200000E-03    1.0000003E-24
 -2.3850000E-03    1.0000004E-24
 -2.3500000E-03    1.0000002E-24
 -2.3149999E-03    9.9999963E-25
 -2.2799999E-03    9.9999943E-25
 -2.2450001E-03    9.9999992E-25
 -2.2100001E-03    1.0000005E-24
 -2.1750000E-03    1.0000004E-24
 -2.1400000E-03    9.9999972E-25
 -2.1050000E-03    9.9999992E-25
 -2.0699999E-03    1.0000008E-24
 -2.0349999E-03    1.0000009E-24
 -2.0000001E-03    1.0000002E-24
 -1.9650001E-03    9.9999972E-25
 -1.9300000E-03    9.9999992E-25
 -1.8950000E-03    1.0000000E-24
 -1.8600000E-03    1.0000000E-24
 -1.8250000E-03    1.0000002E-24
 -1.7900000E-03    1.0000004E-24
 -1.7550000E-03    9.9999992E-25
 -1.7199999E-03    9.9999933E-25
 -1.6850000E-03    9.9999972E-25
 -1.6500000E-03    1.0000005E-24
 -1.6150000E-03    1.0000006E-24
 -1.5800000E-03    1.0000003E-24
 -1.5450000E-03    1.0000003E-24
 -1.5100000E-03    1.0000004E-24
 -1.4750001E-03    1.0000002E-24
 -1.4400000E-03    9.9999963E-25
 -1.4050000E-03    9.9999943E-25
 -1.3700000E-03    1.0000001E-24
 -1.3350000E-03    1.0000004E-24
 -1.3000000E-03    1.0000000E-24
 -1.2650000E-03    9.9999972E-25
 -1.2300001E-03    1.0000000E-24
 -1.1950000E-03    1.0000006E-24
 -1.1600000E-03    1.0000007E-24
 -1.1250000E-03    9.9999982E-25
 -1.0900000E-03    9.9999913E-25
 -1.0550000E-03    9.9999982E-25
 -1.0200000E-03    1.0000008E-24
 -9.8500005E-04    1.0000003E-24
 -9.5000002E-04    9.9999982E-25
 -9.1499998E-04    1.0000004E-24
 -8.8000001E-04    1.0000010E-24
 -8.4499997E-04    1.0000006E-24
 -8.1000000E-04    9.9999943E-25
 -7.7500002E-04    9.9999913E-25
 -7.3999999E-04    9.9999943E-25
 -7.0500001E-04    9.9999982E-25
 -6.6999998E-04    1.0000000E-24
 -6.3500000E-04    1.0000008E-24
 -6.0000003E-04    1.0000014E-24
 -5.6499999E-04    1.0000005E-24
 -5.3000002E-04    9.9999874E-25
 -4.9499999E-04    9.9999834E-25
 -4.6000001E-04    9.9999992E-25
 -4.2500001E-04    1.0000017E-24
 -3.9000000E-04    1.0000015E-24
 -3.5500000E-04    1.0000002E-24
 -3.1999999E-04    9.9999893E-25
 -2.8499999E-04    9.9999923E-25
 -2.5000001E-04    1.0000005E-24
 -2.1499999E-04    1.0000010E-24
 -1.8000000E-04    1.0000006E-24
 -1.4500000E-04    1.0000003E-24
 -1.1000000E-04    9.9999963E-25
 -7.5000004E-05    9.9999864E-25
 -3.9999999E-05    9.9999953E-25
 -4.9999999E-06    1.0000018E-24
  2.9999999E-05    1.0000021E-24
  6.5000000E-05    1.0000005E-24
  9.9999997E-05    9.9999913E-25
  1.3499999E-04    9.9999923E-25
  1.7000000E-04    9.9999992E-25
  2.0500000E-04    1.0000004E-24
  2.3999999E-04    1.0000004E-24
  2.7500000E-04    1.0000001E-24
  3.1000000E-04    9.9999982E-25
  3.4500001E-04    9.9999943E-25
  3.8000001E-04    9.9999913E-25
  4.1499999E-04    9.9999963E-25
  4.4999999E-04    1.0000006E-24
  4.8500000E-04    1.0000011E-24
  5.2000000E-04    1.0000000E-24
  5.5499998E-04    9.9999923E-25
  5.9000001E-04    1.0000001E-24
  6.2499999E-04    1.0000009E-24
  6.6000002E-04    1.0000005E-24
  6.9500000E-04    1.0000001E-24
  7.3000003E-04    1.0000001E-24
  7.6500000E-04    1.0000000E-24
  7.9999998E-04    1.0000001E-24
  8.3500001E-04    1.0000000E-24
  8.6999999E-04    1.0000002E-24
  9.0500002E-04    1.0000002E-24
  9.4000000E-04    9.9999972E-25
  9.7499997E-04    9.9999953E-25
  1.0100000E-03    1.0000001E-24
  1.0450000E-03    1.0000004E-24
  1.0800000E-03    1.0000006E-24
  1.1150000E-03    1.0000002E-24
  1.1500000E-03    9.9999933E-25
  1.1849999E-03    9.9999923E-25
  1.2200000E-03    1.0000005E-24
  1.2550000E-03    1.0000009E-24
  1.2900000E-03    1.0000002E-24
  1.3250000E-03    1.0000000E-24
  1.3600000E-03    9.9999992E-25
  1.3950000E-03    1.0000004E-24
  1.4299999E-03    1.0000011E-24
  1.4650000E-03    1.0000003E-24
  1.5000000E-03    9.9999903E-25
  1.5350000E-03    9.9999933E-25
  1.5700000E-03    1.0000004E-24
  1.6050000E-03    1.0000007E-24
  1.6400000E-03    1.0000001E-24
  1.6749999E-03    9.9999992E-25
  1.7100000E-03    1.0000006E-24
  1.7450000E-03    1.0000005E-24
  1.7800000E-03    9.9999933E-25
  1.8150000E-03    9.9999943E-25
  1.8500000E-03    1.0000007E-24
  1.8850000E-03    1.0000010E-24
  1.9200000E-03    1.0000001E-24
  1.9550000E-03    9.9999972E-25
  1.9900000E-03    9.9999992E-25
  2.0250001E-03    1.0000004E-24
  2.0600001E-03    1.0000003E-24
  2.0949999E-03    9.9999963E-25
  2.1299999E-03    9.9999982E-25
  2.1650000E-03    1.0000010E-24
  2.2000000E-03    1.0000011E-24
  2.2350000E-03    9.9999982E-25
  2.2700001E-03    9.9999913E-25
  2.3050001E-03    1.0000002E-24
  2.3399999E-03    1.0000010E-24
  2.3749999E-03    1.0000002E-24
  2.4100000E-03    9.9999903E-25
  2.4450000E-03    9.9999923E-25
  2.4800000E-03    1.0000003E-24
  2.5150001E-03    1.0000010E-24
  2.5500001E-03    1.0000006E-24
  2.5849999E-03    9.9999943E-25
  2.6199999E-03    9.9999923E-25
  2.6550000E-03    1.0000002E-24
  2.6900000E-03    1.0000007E-24
  2.7250000E-03    1.0000009E-24
  2.7600001E-03    1.0000014E-24
  2.7950001E-03    1.0000001E-24
  2.8299999E-03    9.9999874E-25
  2.8649999E-03    9.9999982E-25
  2.9000000E-03    1.0000013E-24
  2.9350000E-03    1.0000007E-24
  2.9700000E-03    9.9999933E-25
  3.0050001E-03    9.9999933E-25
  3.0400001E-03    1.0000003E-24
  3.0749999E-03    1.0000008E-24
  3.1099999E-03    9.9999992E-25
  3.1450000E-03    9.9999864E-25
  3.1800000E-03    9.9999943E-25
  3.2150000E-03    1.0000015E-24
  3.2500001E-03    1.0000019E-24
  3.2850001E-03    1.0000003E-24
  3.3199999E-03    9.9999953E-25
  3.3549999E-03    9.9999982E-25
  3.3900000E-03    9.9999933E-25
  3.4250000E-03    9.9999913E-25
  3.4600000E-03    1.0000003E-24
  3.4950001E-03    1.0000014E-24
  3.5300001E-03    1.0000010E-24
  3.5649999E-03    1.0000005E-24
  3.5999999E-03    9.9999992E-25
  3.6350000E-03    9.9999972E-25
  3.6700000E-03    1.0000001E-24
  3.7050000E-03    1.0000000E-24
  3.7400001E-03    9.9999913E-25
  3.7750001E-03    9.9999953E-25
  3.8099999E-03    1.0000007E-24
  3.8449999E-03    1.0000007E-24
  3.8800000E-03    9.9999972E-25
  3.9149998E-03    9.9999874E-25
  3.9499998E-03    9.9999923E-25
  3.9849998E-03    1.0000006E-24
  4.0199999E-03    1.0000013E-24
  4.0549999E-03    1.0000009E-24
  4.0899999E-03    1.0000002E-24
  4.1250000E-03    9.9999913E-25
  4.1600000E-03    9.9999864E-25
  4.1950000E-03    9.9999953E-25
  4.2300001E-03    1.0000013E-24
  4.2650001E-03    1.0000017E-24
  4.3000001E-03    1.0000001E-24
  4.3350002E-03    9.9999864E-25
  4.3700002E-03    9.9999923E-25
  4.4049998E-03    1.0000000E-24
  4.4399998E-03    1.0000000E-24
  4.4749998E-03    1.0000007E-24
  4.5099999E-03    1.0000014E-24
  4.5449999E-03    1.0000005E-24
  4.5799999E-03    1.0000000E-24
  4.6150000E-03    9.9999992E-25
  4.6500000E-03    9.9999913E-25
  4.6850001E-03    9.9999933E-25
  4.7200001E-03    1.0000010E-24
  4.7550001E-03    1.0000019E-24
  4.7900002E-03    1.0000016E-24
  4.8250002E-03    1.0000003E-24
  4.8600002E-03    9.9999805E-25
  4.8949998E-03    9.9999755E-25
  4.9299998E-03    9.9999963E-25
  4.9649999E-03    1.0000015E-24
  4.9999999E-03    1.0000016E-24
  5.0349999E-03    1.0000002E-24
  5.0700000E-03    9.9999834E-25
  5.1050000E-03    9.9999844E-25
  5.1400000E-03    1.0000004E-24
  5.1750001E-03    1.0000020E-24
  5.2100001E-03    1.0000018E-24
  5.2450001E-03    9.9999992E-25
  5.2800002E-03    9.9999805E-25
  5.3150002E-03    9.9999884E-25
  5.3500002E-03    1.0000013E-24
  5.3849998E-03    1.0000022E-24
  5.4199998E-03    1.0000006E-24
  5.4549999E-03    9.9999824E-25
  5.4899999E-03    9.9999824E-25
  5.5249999E-03    1.0000008E-24
  5.5600000E-03    1.0000025E-24
  5.5950000E-03    1.0000010E-24
  5.6300000E-03    9.9999884E-25
  5.6650001E-03    9.9999874E-25
  5.7000001E-03    9.9999933E-25
  5.7350001E-03    1.0000001E-24
  5.7700002E-03    1.0000007E-24
  5.8050002E-03    1.0000013E-24
  5.8400002E-03    1.0000013E-24
  5.8749998E-03    9.9999972E-25
  5.9099998E-03    9.9999775E-25
  5.9449999E-03    9.9999824E-25
  5.9799999E-03    1.0000001E-24
  6.0149999E-03    1.0000009E-24
  6.0500000E-03    1.0000008E-24
  6.0850000E-03    1.0000005E-24
  6.1200000E-03    1.0000001E-24
  6.1550001E-03    1.0000002E-24
  6.1900001E-03    1.0000011E-24
  6.2250001E-03    1.0000008E-24
  6.2600002E-03    9.9999893E-25
  6.2950002E-03    9.9999775E-25
  6.3299998E-03    9.9999933E-25
  6.3649998E-03    1.0000023E-24
  6.3999998E-03    1.0000032E-24
  6.4349999E-03    1.0000010E-24
  6.4699999E-03    9.9999815E-25
  6.5049999E-03    9.9999726E-25
  6.5400000E-03    9.9999834E-25
  6.5750000E-03    9.9999972E-25
  6.6100000E-03    1.0000013E-24
  6.6450001E-03    1.0000023E-24
  6.6800001E-03    1.0000016E-24
  6.7150001E-03    9.9999992E-25
  6.7500002E-03    9.9999913E-25
  6.7850002E-03    9.9999972E-25
  6.8199998E-03    1.0000005E-24
  6.8549998E-03    1.0000007E-24
  6.8899998E-03    1.0000002E-24
  6.9249999E-03    9.9999982E-25
  6.9599999E-03    9.9999982E-25
  6.9949999E-03    1.0000003E-24
  7.0300000E-03    1.0000005E-24
  7.0650000E-03    9.9999913E-25
  7.1000000E-03    9.9999746E-25
  7.1350001E-03    9.9999864E-25
  7.1700001E-03    1.0000023E-24
  7.2050001E-03    1.0000032E-24
  7.2400002E-03    1.0000011E-24
  7.2750002E-03    9.9999972E-25
  7.3099998E-03    9.9999972E-25
  7.3449998E-03    1.0000000E-24
  7.3799998E-03    1.0000005E-24
  7.4149999E-03    1.0000005E-24
  7.4499999E-03    9.9999992E-25
  7.4850000E-03    9.9999972E-25
  7.5200000E-03    9.9999982E-25
  7.5550000E-03    9.9999963E-25
  7.5900001E-03    9.9999933E-25
  7.6250001E-03    9.9999963E-25
  7.6600001E-03    9.9999982E-25
  7.6950002E-03    9.9999943E-25
  7.7300002E-03    9.9999913E-25
  7.7650002E-03    1.0000004E-24
  7.7999998E-03    1.0000019E-24
  7.8349998E-03    1.0000008E-24
  7.8699999E-03    9.9999874E-25
  7.9049999E-03    9.9999864E-25
  7.9399999E-03    9.9999972E-25
  7.9750000E-03    1.0000012E-24
  8.0100000E-03    1.0000023E-24
  8.0450000E-03    1.0000011E-24
  8.0800001E-03    9.9999874E-25
  8.1150001E-03    9.9999844E-25
  8.1500001E-03    9.9999953E-25
  8.1850002E-03    9.9999982E-25
  8.2200002E-03    1.0000003E-24
  8.2550002E-03    1.0000009E-24
  8.2900003E-03    1.0000011E-24
  8.3250003E-03    1.0000017E-24
  8.3600003E-03    1.0000017E-24
  8.3950004E-03    1.0000001E-24
  8.4300004E-03    9.9999903E-25
  8.4650004E-03    9.9999903E-25
  8.5000005E-03    9.9999874E-25
  8.5349996E-03    9.9999903E-25
  8.5699996E-03    1.0000009E-24
  8.6049996E-03    1.0000023E-24
  8.6399997E-03    1.0000016E-24
  8.6749997E-03    9.9999982E-25
  8.7099997E-03    9.9999864E-25
  8.7449998E-03    9.9999834E-25
  8.7799998E-03    9.9999884E-25
  8.8149998E-03    1.0000014E-24
  8.8499999E-03    1.0000033E-24
  8.8849999E-03    1.0000015E-24
  8.9199999E-03    9.9999893E-25
  8.9550000E-03    9.9999824E-25
  8.9900000E-03    9.9999874E-25
  9.0250000E-03    9.9999992E-25
  9.0600001E-03    1.0000016E-24
  9.0950001E-03    1.0000007E-24
  9.1300001E-03    9.9999854E-25
  9.1650002E-03    9.9999893E-25
  9.2000002E-03    1.0000008E-24
  9.2350002E-03    1.0000013E-24
  9.2700003E-03    1.0000003E-24
  9.3050003E-03    9.9999913E-25
  9.3400003E-03    9.9999953E-25
  9.3750004E-03    1.0000017E-24
  9.4100004E-03    1.0000019E-24
  9.4450004E-03    1.0000002E-24
  9.4799995E-03    1.0000000E-24
  9.5149996E-03    9.9999992E-25
  9.5499996E-03    9.9999893E-25
  9.5849996E-03    9.9999923E-25
  9.6199997E-03    1.0000008E-24
  9.6549997E-03    1.0000007E-24
  9.6899997E-03    9.9999893E-25
  9.7249998E-03    9.9999834E-25
  9.7599998E-03    1.0000004E-24
  9.7949998E-03    1.0000026E-24
  9.8299999E-03    1.0000015E-24
  9.8649999E-03    9.9999963E-25
  9.8999999E-03    9.9999943E-25
  9.9350000E-03    9.9999903E-25
  9.9700000E-03    9.9999864E-25
  1.0005000E-02    1.0000001E-24
  1.0040000E-02    1.0000012E-24
  1.0075000E-02    1.0000008E-24
  1.0110000E-02    1.0000008E-24
  1.0145000E-02    1.0000008E-24
  1.0180000E-02    9.9999913E-25
  1.0215000E-02    9.9999805E-25
  1.0250000E-02    9.9999933E-25
  1.0285000E-02    1.0000010E-24
  1.0320000E-02    1.0000010E-24
  1.0355000E-02    1.0000001E-24
  1.0390000E-02    1.0000009E-24
  1.0425000E-02    1.0000020E-24
  1.0460000E-02    1.0000010E-24
  1.0495000E-02    9.9999913E-25
  1.0530000E-02    9.9999933E-25
  1.0565000E-02    1.0000000E-24
  1.0600000E-02    9.9999854E-25
  1.0635000E-02    9.9999755E-25
  1.0670000E-02    9.9999943E-25
  1.0705000E-02    1.0000025E-24
  1.0740000E-02    1.0000025E-24
  1.0775000E-02    9.9999864E-25
  1.0810000E-02    9.9999637E-25
  1.0845000E-02    9.9999913E-25
  1.0880000E-02    1.0000028E-24
  1.0915000E-02    1.0000022E-24
  1.0950000E-02    9.9999864E-25
  1.0985000E-02    9.9999805E-25
  1.1020000E-02    1.0000024E-24
  1.1055000E-02    1.0000034E-24
  1.1090000E-02    9.9999608E-25
  1.1125000E-02    9.9999341E-25
  1.1160000E-02    1.0000054E-24
  1.1195000E-02    1.0000119E-24
  1.1230000E-02    9.9999302E-25
  1.1265000E-02    9.9997813E-25
  1.1300000E-02    1.0000059E-24
  1.1335000E-02    1.0000395E-24
  1.1370000E-02    1.0000054E-24
  1.1405000E-02    9.9994135E-25
  1.1440000E-02    9.9997379E-25
  1.1475000E-02    1.0000831E-24
  1.1510000E-02    1.0000652E-24
  1.1545000E-02    9.9988997E-25
  1.1580000E-02    9.9986818E-25
  1.1615000E-02    1.0001341E-24
  1.1650000E-02    1.0002414E-24
  1.1685000E-02    9.9985822E-25
  1.1720000E-02    9.9958468E-25
  1.1755000E-02    1.0001007E-24
  1.1790000E-02    1.0006708E-24
  1.1825000E-02    1.0000420E-24
  1.1860000E-02    9.9898485E-25
  1.1895000E-02    9.9964148E-25
  1.1930000E-02    1.0014495E-24
  1.1965000E-02    1.0009692E-24
  1.2000000E-02    9.9806751E-25
  1.2035000E-02    9.9795480E-25
  1.2070000E-02    1.0023431E-24
  1.2105000E-02    1.0038005E-24
  1.2140000E-02    9.9756362E-25
  1.2175000E-02    9.9351706E-25
  1.2210000E-02    1.0017678E-24
  1.2245000E-02    1.0103274E-24
  1.2280000E-02    1.0004079E-24
  1.2315000E-02    9.8455412E-25
  1.2350000E-02    9.9476622E-25
  1.2385000E-02    1.0216517E-24
  1.2420000E-02    1.0143682E-24
  1.2455000E-02    9.7187299E-25
  1.2490000E-02    9.6999185E-25
  1.2525000E-02    1.0329569E-24
  1.2560000E-02    1.0547970E-24
  1.2595000E-02    9.6754086E-25
  1.2630000E-02    9.0853475E-25
  1.2665000E-02    1.0203053E-24
  1.2700000E-02    1.1419915E-24
  1.2735000E-02    1.0134692E-24
  1.2770000E-02    7.9394674E-25
  1.2805000E-02    9.1659445E-25
  1.2840000E-02    1.2784399E-24
  1.2875000E-02    1.2091213E-24
  1.2910000E-02    6.5490488E-25
  1.2945000E-02    5.8532330E-25
  1.2980000E-02    1.3776051E-24
  1.3015000E-02    1.7258113E-24
  1.3050000E-02    6.7389256E-25
  1.3085000E-02   -1.6349323E-25
  1.3120000E-02    1.1112491E-24
  1.3155000E-02    2.7318458E-24
  1.3190000E-02    1.3832875E-24
  1.3225000E-02   -1.3981674E-24
  1.3260000E-02   -3.1467223E-25
  1.3295000E-02    4.0628522E-24
  1.3330000E-02    3.8761359E-24
  1.3365000E-02   -2.5178754E-24
  1.3400000E-02   -4.2757160E-24
  1.3435000E-02    4.3947583E-24
  1.3470000E-02    9.6878225E-24
  1.3505000E-02   -1.1071089E-24
  1.3540000E-02   -1.2164132E-23
  1.3575000E-02   -2.0011287E-25
  1.3610000E-02    1.9489157E-23
  1.3645000E-02    8.6721783E-24
  1.3680000E-02   -2.2967712E-23
  1.3715000E-02   -1.7700647E-23
  1.3750000E-02    2.9139528E-23
  1.3785000E-02    3.6760824E-23
  1.3820000E-02   -2.7433537E-23
  1.3855000E-02   -5.9060691E-23
  1.3890000E-02    2.1804769E-23
  1.3925000E-02    9.2918569E-23
  1.3960000E-02    1.5554526E-24
  1.3995000E-02   -1.2878703E-22
  1.4030000E-02   -4.2279549E-23
  1.4065000E-02    1.6986467E-22
  1.4100000E-02    1.1741380E-22
  1.4135000E-02   -1.9830334E-22
  1.4170000E-02   -2.2820708E-22
  1.4205000E-02    2.0514173E-22
  1.4240000E-02    3.8968636E-22
  1.4275000E-02   -1.5630102E-22
  1.4310000E-02   -5.9457216E-22
  1.4345000E-02    2.3269073E-23
  1.4380000E-02    8.3914727E-22
  1.4415000E-02    2.4851602E-22
  1.4450000E-02   -1.0829210E-21
  1.4485000E-02   -7.0413240E-22
  1.4520000E-02    1.2704088E-21
  1.4555000E-02    1.4026203E-21
  1.4590000E-02   -1.2881646E-21
  1.4625000E-02   -2.3692551E-21
  1.4660000E-02    9.8742040E-22
  1.4695000E-02    3.6025945E-21
  1.4730000E-02   -1.4833059E-22
  1.4765000E-02   -5.0069844E-21
  1.4800000E-02   -1.4802573E-21
  1.4835000E-02    6.3789459E-21
  1.4870000E-02    4.1855844E-21
  1.4905000E-02   -7.3229912E-21
  1.4940000E-02   -8.2029102E-21
  1.4975000E-02    7.2332308E-21
  1.5010000E-02    1.3652991E-20
  1.5045000E-02   -5.2276692E-21
  1.5080000E-02   -2.0369749E-20
  1.5115000E-02    1.8609291E-22
  1.5150000E-02    2.7744833E-20
  1.5185000E-02    9.2050848E-21
  1.5220000E-02   -3.4471272E-20
  1.5255000E-02   -2.4234763E-20
  1.5290000E-02    3.8342296E-20
  1.5325000E-02    4.5863197E-20
  1.5360000E-02   -3.6030375E-20
  1.5395000E-02   -7.4169848E-20
  1.5430000E-02    2.3058653E-20
  1.5465000E-02    1.0766727E-19
  1.5500000E-02    6.0461361E-21
  1.5535000E-02   -1.4237926E-19
  1.5570000E-02   -5.7144920E-20
  1.5605000E-02    1.7090200E-19
  1.5640000E-02    1.3539014E-19
  1.5675001E-02   -1.8150177E-19
  1.5710000E-02   -2.4337308E-19
  1.5745001E-02    1.5767073E-19
  1.5780000E-02    3.7856603E-19
  1.5814999E-02   -7.8432090E-20
  1.5850000E-02   -5.2999447E-19
  1.5884999E-02   -7.9952693E-20
  1.5920000E-02    6.7454868E-19
  1.5954999E-02    3.4041561E-19
  1.5990000E-02   -7.7340457E-19
  1.6024999E-02   -7.1898963E-19
  1.6060000E-02    7.6967129E-19
  1.6094999E-02    1.2159958E-18
  1.6130000E-02   -5.8855664E-19
  1.6164999E-02   -1.8045098E-18
  1.6200000E-02    1.4198298E-19
  1.6235000E-02    2.4170981E-18
  1.6270000E-02    6.6045735E-19
  1.6305000E-02   -2.9325970E-18
  1.6340001E-02   -1.8921930E-18
  1.6375000E-02    3.1662700E-18
  1.6410001E-02    3.5809282E-18
  1.6445000E-02   -2.8678375E-18
  1.6480001E-02   -5.6705849E-18
  1.6515000E-02    1.7333812E-18
  1.6550001E-02    7.9766226E-18
  1.6585000E-02    5.6240635E-19
  1.6620001E-02   -1.0140546E-17
  1.6655000E-02   -4.3073003E-18
  1.6690001E-02    1.1593714E-17
  1.6725000E-02    9.6620709E-18
  1.6759999E-02   -1.1544772E-17
  1.6795000E-02   -1.6540735E-17
  1.6829999E-02    9.0091359E-18
  1.6865000E-02    2.4468373E-17
  1.6899999E-02   -2.9008858E-18
  1.6935000E-02   -3.2434347E-17
  1.6969999E-02   -7.7938967E-18
  1.7005000E-02    3.8771170E-17
  1.7039999E-02    2.3749876E-17
  1.7075000E-02   -4.1102287E-17
  1.7109999E-02   -4.4942632E-17
  1.7145000E-02    3.6413450E-17
  1.7180000E-02    7.0219124E-17
  1.7215000E-02   -2.1307594E-17
  1.7250000E-02   -9.6851289E-17
  1.7285001E-02   -7.5015215E-18
  1.7320000E-02    1.2016110E-16
  1.7355001E-02    5.2422062E-17
  1.7390000E-02   -1.3334210E-16
  1.7425001E-02   -1.1394883E-16
  1.7460000E-02    1.2763243E-16
  1.7495001E-02    1.8942796E-16
  1.7530000E-02   -9.3007639E-17
  1.7565001E-02   -2.7177322E-16
  1.7600000E-02    1.9543274E-17
  1.7635001E-02    3.4838367E-16
  1.7670000E-02    1.0046378E-16
  1.7704999E-02   -4.0060873E-16
  1.7740000E-02   -2.6964026E-16
  1.7774999E-02    4.0418311E-16
  1.7810000E-02    4.8214846E-16
  1.7844999E-02   -3.3107643E-16
  1.7880000E-02   -7.2018839E-16
  1.7914999E-02    1.5314295E-16
  1.7950000E-02    9.5107062E-16
  1.7984999E-02    1.5222292E-16
  1.8020000E-02   -1.1257824E-15
  1.8054999E-02   -5.9453888E-16
  1.8090000E-02    1.1801389E-15
  1.8124999E-02    1.1613637E-15
  1.8160000E-02   -1.0396422E-15
  1.8195000E-02   -1.8092596E-15
  1.8230001E-02    6.2896691E-16
  1.8265000E-02    2.4563661E-15
  1.8300001E-02    1.1351271E-16
  1.8335000E-02   -2.9789372E-15
  1.8370001E-02   -1.2165798E-15
  1.8405000E-02    3.2145402E-15
  1.8440001E-02    2.6540151E-15
  1.8475000E-02   -2.9745915E-15
  1.8510001E-02   -4.3224417E-15
  1.8545000E-02    2.0682493E-15
  1.8580001E-02    6.0236617E-15
  1.8615000E-02   -3.3835353E-16
  1.8650001E-02   -7.4571891E-15
  1.8685000E-02   -2.2920548E-15
  1.8719999E-02    8.2293469E-15
  1.8755000E-02    5.7669273E-15
  1.8789999E-02   -7.8848637E-15
  1.8825000E-02   -9.8457450E-15
  1.8859999E-02    5.9651114E-15
  1.8895000E-02    1.4064187E-14
  1.8929999E-02   -2.0936084E-15
  1.8965000E-02   -1.7720194E-14
  1.8999999E-02   -3.9157224E-15
  1.9035000E-02    1.9899562E-14
  1.9069999E-02    1.1938752E-14
  1.9105000E-02   -1.9553429E-14
  1.9140000E-02   -2.1427975E-14
  1.9175000E-02    1.5635237E-14
  1.9210000E-02    3.1331007E-14
  1.9245001E-02   -7.2960182E-15
  1.9280000E-02   -4.0069781E-14
  1.9315001E-02   -5.8749066E-15
  1.9350000E-02    4.5610149E-14
  1.9385001E-02    2.3591216E-14
  1.9420000E-02   -4.5645819E-14
  1.9455001E-02   -4.4634953E-14
  1.9490000E-02    3.7908150E-14
  1.9525001E-02    6.6700294E-14
  1.9560000E-02   -2.0593463E-14
  1.9595001E-02   -8.6376720E-14
  1.9630000E-02   -7.1262881E-15
  1.9664999E-02    9.9329440E-14
  1.9700000E-02    4.4573506E-14
  1.9734999E-02   -1.0071942E-13
  1.9770000E-02   -8.9107324E-14
  1.9804999E-02    8.5875527E-14
  1.9840000E-02    1.3585107E-13
  1.9874999E-02   -5.1188471E-14
  1.9910000E-02   -1.7772464E-13
  1.9944999E-02   -4.8581020E-15
  1.9980000E-02    2.0588690E-13
  2.0014999E-02    8.0659356E-14
  2.0050000E-02   -2.1065471E-13
  2.0085000E-02   -1.7065470E-13
  2.0120000E-02    1.8289787E-13
  2.0155000E-02    2.6490653E-13
  2.0190001E-02   -1.1582200E-13
  2.0225000E-02   -3.4931327E-13
  2.0260001E-02    6.9469009E-15
  2.0295000E-02    4.0663244E-13
  2.0330001E-02    1.4001171E-13
  2.0365000E-02   -4.1839934E-13
  2.0400001E-02   -3.1372951E-13
  2.0435000E-02    3.6768884E-13
  2.0470001E-02    4.9473338E-13
  2.0505000E-02   -2.4249946E-13
  2.0540001E-02   -6.5611270E-13
  2.0575000E-02    3.9349271E-14
  2.0609999E-02    7.6574549E-13
  2.0645000E-02    2.3348793E-13
  2.0679999E-02   -7.9011212E-13
  2.0715000E-02   -5.5378938E-13
  2.0749999E-02    6.9950122E-13
  2.0785000E-02    8.8493275E-13
  2.0819999E-02   -4.7410681E-13
  2.0855000E-02   -1.1777797E-12
  2.0889999E-02    1.1020372E-13
  2.0925000E-02    1.3752363E-12
  2.0959999E-02    3.7465061E-13
  2.0995000E-02   -1.4194540E-12
  2.1029999E-02   -9.3857203E-13
  2.1065000E-02    1.2611519E-12
  2.1100000E-02    1.5155777E-12
  2.1135001E-02   -8.7002351E-13
  2.1170000E-02   -2.0199354E-12
  2.1205001E-02    2.4472191E-13
  2.1240000E-02    2.3549658E-12
  2.1275001E-02    5.7940523E-13
  2.1310000E-02   -2.4259412E-12
  2.1345001E-02   -1.5267270E-12
  2.1380000E-02    2.1559172E-12
  2.1415001E-02    2.4835522E-12
  2.1450000E-02   -1.5025109E-12
  2.1485001E-02   -3.3072020E-12
  2.1520000E-02    4.7300293E-13
  2.1555001E-02    3.8420317E-12
  2.1590000E-02    8.6518851E-13
  2.1624999E-02   -3.9413299E-12
  2.1660000E-02   -2.3815199E-12
  2.1694999E-02    3.4927330E-12
  2.1730000E-02    3.8890354E-12
  2.1764999E-02   -2.4436564E-12
  2.1800000E-02   -5.1617803E-12
  2.1834999E-02    8.2245566E-13
  2.1870000E-02    5.9623266E-12
  2.1904999E-02    1.2491536E-12
  2.1940000E-02   -6.0768972E-12
  2.1974999E-02   -3.5563245E-12
  2.2010000E-02    5.3537938E-12
  2.2045000E-02    5.8065332E-12
  2.2080000E-02   -3.7392945E-12
  2.2115000E-02   -7.6606308E-12
  2.2150001E-02    1.3045504E-12
  2.2185000E-02    8.7773556E-12
  2.2220001E-02    1.7427756E-12
  2.2255000E-02   -8.8663374E-12
  2.2290001E-02   -5.0669065E-12
  2.2325000E-02    7.7422574E-12
  2.2360001E-02    8.2345467E-12
  2.2395000E-02   -5.3712972E-12
  2.2430001E-02   -1.0766451E-11
  2.2465000E-02    1.9007092E-12
  2.2500001E-02    1.2204781E-11
  2.2535000E-02    2.3361747E-12
  2.2569999E-02   -1.2187556E-11
  2.2605000E-02   -6.8443875E-12
  2.2639999E-02    1.0518664E-11
  2.2675000E-02    1.1021504E-11
  2.2709999E-02   -7.2210345E-12
  2.2745000E-02   -1.4236866E-11
  2.2779999E-02    2.5614387E-12
  2.2815000E-02    1.5925887E-11
  2.2849999E-02    2.9611047E-12
  2.2885000E-02   -1.5685465E-11
  2.2919999E-02   -8.6661728E-12
  2.2955000E-02    1.3354404E-11
  2.2990000E-02    1.3778244E-11
  2.3025000E-02   -9.0631521E-12
  2.3060000E-02   -1.7537754E-11
  2.3095001E-02    3.2409147E-12
  2.3130000E-02    1.9320472E-11
  2.3165001E-02    3.4256075E-12
  2.3200000E-02   -1.8745457E-11
  2.3235001E-02   -1.0079526E-11
  2.3270000E-02    1.5751607E-11
  2.3305001E-02    1.5815921E-11
  2.3340000E-02   -1.0626786E-11
  2.3375001E-02   -1.9820347E-11
  2.3410000E-02    3.9805724E-12
  2.3445001E-02    2.1500229E-11
  2.3480000E-02    3.3382847E-12
  2.3514999E-02   -2.0585375E-11
  2.3550000E-02   -1.0368335E-11
  2.3584999E-02    1.7177690E-11
  2.3620000E-02    1.6185183E-11
  2.3654999E-02   -1.1738671E-11
  2.3690000E-02   -2.0047979E-11
  2.3724999E-02    5.0147907E-12
  2.3760000E-02    2.1515517E-11
  2.3794999E-02    2.0871165E-12
  2.3830000E-02   -2.0509375E-11
  2.3864999E-02   -8.6516497E-12
  2.3900000E-02    1.7311388E-11
  2.3934999E-02    1.3904830E-11
  2.3970000E-02   -1.2495714E-11
  2.4005000E-02   -1.7332691E-11
  2.4040001E-02    6.8094892E-12
  2.4075000E-02    1.8744976E-11
  2.4110001E-02   -1.0272089E-12
  2.4145000E-02   -1.8271830E-11
  2.4180001E-02   -4.1899305E-12
  2.4215000E-02    1.6296044E-11
  2.4250001E-02    8.3993524E-12
  2.4285000E-02   -1.3337973E-11
  2.4320001E-02   -1.1424620E-11
  2.4355000E-02    9.9212964E-12
  2.4390001E-02    1.3336106E-11
  2.4425000E-02   -6.4526006E-12
  2.4460001E-02   -1.4371925E-11
  2.4495000E-02    3.1445744E-12
  2.4529999E-02    1.4821172E-11
  2.4565000E-02   -2.0907418E-15
  2.4599999E-02   -1.4901441E-11
  2.4635000E-02   -3.1253873E-12
  2.4669999E-02    1.4665073E-11
  2.4705000E-02    6.4390849E-12
  2.4739999E-02   -1.3962030E-11
  2.4775000E-02   -1.0062303E-11
  2.4809999E-02    1.2473671E-11
  2.4845000E-02    1.3924565E-11
  2.4879999E-02   -9.8133715E-12
  2.4915000E-02   -1.7694273E-11
  2.4950000E-02    5.6715253E-12
  2.4985000E-02    2.0785399E-11
  2.5020000E-02    3.1313809E-14
  2.5055001E-02   -2.2446342E-11
  2.5090000E-02   -7.0247458E-12
  2.5125001E-02    2.1918795E-11
  2.5160000E-02    1.4639789E-11
  2.5195001E-02   -1.8635211E-11
  2.5230000E-02   -2.1854579E-11
  2.5265001E-02    1.2410612E-11
  2.5300000E-02    2.7437443E-11
  2.5335001E-02   -3.5812445E-12
  2.5370000E-02   -3.0167896E-11
  2.5405001E-02   -6.9503136E-12
  2.5440000E-02    2.9095764E-11
  2.5474999E-02    1.7787013E-11
  2.5510000E-02   -2.3786305E-11
  2.5544999E-02   -2.7226480E-11
  2.5580000E-02    1.4496778E-11
  2.5614999E-02    3.3542800E-11
  2.5650000E-02   -2.2386615E-12
  2.5684999E-02   -3.5315039E-11
  2.5720000E-02   -1.1301847E-11
  2.5754999E-02    3.1741967E-11
  2.5790000E-02    2.3987175E-11
  2.5824999E-02   -2.2878763E-11
  2.5860000E-02   -3.3569297E-11
  2.5895000E-02    9.7398149E-12
  2.5930000E-02    3.8096915E-11
  2.5965000E-02    5.7691725E-12
  2.6000001E-02   -3.6318636E-11
  2.6035000E-02   -2.1098680E-11
  2.6070001E-02    2.8003877E-11
  2.6105000E-02    3.3457813E-11
  2.6140001E-02   -1.4108863E-11
  2.6175000E-02   -4.0314689E-11
  2.6210001E-02   -3.2654415E-12
  2.6245000E-02    3.9909815E-11
  2.6280001E-02    2.1142791E-11
  2.6315000E-02   -3.1683517E-11
  2.6350001E-02   -3.6146201E-11
  2.6385000E-02    1.6520946E-11
  2.6419999E-02    4.5110551E-11
  2.6455000E-02    3.2595233E-12
  2.6489999E-02   -4.5727991E-11
  2.6525000E-02   -2.4207084E-11
  2.6559999E-02    3.7097138E-11
  2.6595000E-02    4.2303289E-11
  2.6629999E-02   -2.0050234E-11
  2.6665000E-02   -5.3706713E-11
  2.6699999E-02   -2.8377804E-12
  2.6735000E-02    5.5543084E-11
  2.6769999E-02    2.7598836E-11
  2.6805000E-02   -4.6577998E-11
  2.6839999E-02   -4.9547068E-11
  2.6875000E-02    2.7613266E-11
  2.6910000E-02    6.4167810E-11
  2.6945001E-02   -1.4928934E-12
  2.6980000E-02   -6.8047713E-11