 -4.8000002E-03    1.0000000E-24
 -4.7650002E-03    1.0000002E-24
 -4.7300002E-03    1.0000001E-24
 -4.6950001E-03    1.0000000E-24
 -4.6600001E-03    1.0000003E-24
 -4.6250001E-03    1.0000002E-24
 -4.5900000E-03    1.0000000E-24
 -4.5550000E-03    1.0000002E-24
 -4.5200000E-03    9.9999992E-25
 -4.4849999E-03    1.0000000E-24
 -4.4499999E-03    1.0000002E-24
 -4.4149999E-03    1.0000001E-24
 -4.3799998E-03    9.9999953E-25
 -4.3449998E-03    9.9999992E-25
 -4.3100002E-03    1.0000007E-24
 -4.2750002E-03    1.0000001E-24
 -4.2400002E-03    9.9999982E-25
 -4.2050001E-03    1.0000005E-24
 -4.1700001E-03    1.0000004E-24
 -4.1350001E-03    9.9999943E-25
 -4.1000000E-03    9.9999963E-25
 -4.0650000E-03    1.0000003E-24
 -4.0300000E-03    1.0000000E-24
 -3.9949999E-03    9.9999972E-25
 -3.9599999E-03    1.0000003E-24
 -3.9249999E-03    1.0000005E-24
 -3.8900001E-03    9.9999963E-25
 -3.8550000E-03    9.9999982E-25
 -3.8200000E-03    1.0000004E-24
 -3.7849999E-03    1.0000002E-24
 -3.7499999E-03    9.9999972E-25
 -3.7150001E-03    1.0000004E-24
 -3.6800001E-03    1.0000007E-24
 -3.6450000E-03    9.9999972E-25
 -3.6100000E-03    9.9999953E-25
 -3.5750000E-03    1.0000000E-24
 -3.5399999E-03    9.9999992E-25
 -3.5049999E-03    9.9999982E-25
 -3.4700001E-03    1.0000007E-24
 -3.4350001E-03    1.0000005E-24
 -3.4000000E-03    9.9999992E-25
 -3.3650000E-03    9.9999992E-25
 -3.3300000E-03    1.0000001E-24
 -3.2949999E-03    9.9999963E-25
 -3.2599999E-03    9.9999992E-25
 -3.2250001E-03    1.0000005E-24
 -3.1900001E-03    1.0000004E-24
 -3.1550000E-03    9.9999972E-25
 -3.1200000E-03    9.9999982E-25
 -3.0850000E-03    1.0000004E-24
 -3.0499999E-03    1.0000002E-24
 -3.0149999E-03    9.9999963E-25
 -2.9800001E-03    9.9999992E-25
 -2.9450001E-03    1.0000006E-24
 -2.9100000E-03    1.0000002E-24
 -2.8750000E-03    9.9999953E-25
 -2.8400000E-03    1.0000002E-24
 -2.8049999E-03    1.0000006E-24
 -2.7699999E-03    9.9999992E-25
 -2.7350001E-03    9.9999992E-25
 -2.7000001E-03    1.0000004E-24
 -2.6650000E-03    1.0000003E-24
 -2.6300000E-03    9.9999982E-25
 -2.5950000E-03    1.0000000E-24
 -2.5599999E-03    1.0000002E-24
 -2.5249999E-03    9.9999953E-25
 -2.4900001E-03    9.9999943E-25
 -2.4550001E-03    1.0000005E-24
 -2.4200000E-03    1.0000007E-24
 -2.3850000E-03    1.0000005E-24
 -2.3500000E-03    1.0000000E-24
 -2.3149999E-03    9.9999953E-25
 -2.2799999E-03    9.9999913E-25
 -2.2450001E-03    9.9999943E-25
 -2.2100001E-03    1.0000002E-24
 -2.1750000E-03    1.0000009E-24
 -2.1400000E-03    1.0000007E-24
 -2.1050000E-03    9.9999992E-25
 -2.0699999E-03    1.0000001E-24
 -2.0349999E-03    1.0000007E-24
 -2.0000001E-03    9.9999963E-25
 -1.9650001E-03    9.9999913E-25
 -1.9300000E-03    1.0000004E-24
 -1.8950000E-03    1.0000003E-24
 -1.8600000E-03    9.9999943E-25
 -1.8250000E-03    1.0000000E-24
 -1.7900000E-03    1.0000008E-24
 -1.7550000E-03    1.0000005E-24
 -1.7199999E-03    9.9999972E-25
 -1.6850000E-03    1.0000001E-24
 -1.6500000E-03    1.0000006E-24
 -1.6150000E-03    9.9999953E-25
 -1.5800000E-03    9.9999864E-25
 -1.5450000E-03    9.9999992E-25
 -1.5100000E-03    1.0000009E-24
 -1.4750001E-03    1.0000002E-24
 -1.4400000E-03    1.0000001E-24
 -1.4050000E-03    1.0000006E-24
 -1.3700000E-03    1.0000001E-24
 -1.3350000E-03    1.0000000E-24
 -1.3000000E-03    9.9999982E-25
 -1.2650000E-03    9.9999913E-25
 -1.2300001E-03    9.9999992E-25
 -1.1950000E-03    1.0000010E-24
 -1.1600000E-03    9.9999982E-25
 -1.1250000E-03    9.9999933E-25
 -1.0900000E-03    1.0000009E-24
 -1.0550000E-03    1.0000009E-24
 -1.0200000E-03    9.9999923E-25
 -9.8500005E-04    9.9999884E-25
 -9.5000002E-04    1.0000007E-24
 -9.1499998E-04    1.0000012E-24
 -8.8000001E-04    9.9999943E-25
 -8.4499997E-04    9.9999874E-25
 -8.1000000E-04    1.0000008E-24
 -7.7500002E-04    1.0000010E-24
 -7.3999999E-04    9.9999864E-25
 -7.0500001E-04    9.9999893E-25
 -6.6999998E-04    1.0000011E-24
 -6.3500000E-04    1.0000011E-24
 -6.0000003E-04    9.9999953E-25
 -5.6499999E-04    9.9999963E-25
 -5.3000002E-04    1.0000005E-24
 -4.9499999E-04    1.0000011E-24
 -4.6000001E-04    1.0000004E-24
 -4.2500001E-04    9.9999923E-25
 -3.9000000E-04    9.9999943E-25
 -3.5500000E-04    1.0000002E-24
 -3.1999999E-04    9.9999982E-25
 -2.8499999E-04    9.9999923E-25
 -2.5000001E-04    1.0000004E-24
 -2.1499999E-04    1.0000009E-24
 -1.8000000E-04    9.9999953E-25
 -1.4500000E-04    9.9999943E-25
 -1.1000000E-04    1.0000002E-24
 -7.5000004E-05    1.0000003E-24
 -3.9999999E-05    1.0000003E-24
 -4.9999999E-06    1.0000005E-24
  2.9999999E-05    9.9999992E-25
  6.5000000E-05    1.0000000E-24
  9.9999997E-05    1.0000003E-24
  1.3499999E-04    9.9999982E-25
  1.7000000E-04    9.9999943E-25
  2.0500000E-04    1.0000002E-24
  2.3999999E-04    1.0000002E-24
  2.7500000E-04    9.9999903E-25
  3.1000000E-04    1.0000001E-24
  3.4500001E-04    1.0000005E-24
  3.8000001E-04    9.9999913E-25
  4.1499999E-04    9.9999972E-25
  4.4999999E-04    1.0000011E-24
  4.8500000E-04    1.0000001E-24
  5.2000000E-04    9.9999982E-25
  5.5499998E-04    1.0000012E-24
  5.9000001E-04    1.0000013E-24
  6.2499999E-04    9.9999943E-25
  6.6000002E-04    9.9999874E-25
  6.9500000E-04    1.0000002E-24
  7.3000003E-04    1.0000007E-24
  7.6500000E-04    1.0000001E-24
  7.9999998E-04    9.9999963E-25
  8.3500001E-04    1.0000001E-24
  8.6999999E-04    9.9999992E-25
  9.0500002E-04    9.9999963E-25
  9.4000000E-04    1.0000005E-24
  9.7499997E-04    1.0000010E-24
  1.0100000E-03    1.0000003E-24
  1.0450000E-03    9.9999982E-25
  1.0800000E-03    9.9999923E-25
  1.1150000E-03    9.9999963E-25
  1.1500000E-03    1.0000005E-24
  1.1849999E-03    1.0000008E-24
  1.2200000E-03    1.0000003E-24
  1.2550000E-03    9.9999933E-25
  1.2900000E-03    9.9999953E-25
  1.3250000E-03    1.0000005E-24
  1.3600000E-03    1.0000003E-24
  1.3950000E-03    9.9999903E-25
  1.4299999E-03    9.9999972E-25
  1.4650000E-03    1.0000010E-24
  1.5000000E-03    9.9999933E-25
  1.5350000E-03    9.9999884E-25
  1.5700000E-03    1.0000013E-24
  1.6050000E-03    1.0000014E-24
  1.6400000E-03    9.9999913E-25
  1.6749999E-03    9.9999982E-25
  1.7100000E-03    1.0000014E-24
  1.7450000E-03    1.0000000E-24
  1.7800000E-03    9.9999874E-25
  1.8150000E-03    9.9999923E-25
  1.8500000E-03    9.9999982E-25
  1.8850000E-03    1.0000001E-24
  1.9200000E-03    1.0000002E-24
  1.9550000E-03    1.0000012E-24
  1.9900000E-03    1.0000015E-24
  2.0250001E-03    9.9999972E-25
  2.0600001E-03    9.9999913E-25
  2.0949999E-03    9.9999992E-25
  2.1299999E-03    9.9999943E-25
  2.1650000E-03    9.9999982E-25
  2.2000000E-03    1.0000011E-24
  2.2350000E-03    1.0000009E-24
  2.2700001E-03    1.0000001E-24
  2.3050001E-03    1.0000003E-24
  2.3399999E-03    9.9999992E-25
  2.3749999E-03    9.9999864E-25
  2.4100000E-03    9.9999864E-25
  2.4450000E-03    9.9999982E-25
  2.4800000E-03    1.0000011E-24
  2.5150001E-03    1.0000009E-24
  2.5500001E-03    1.0000002E-24
  2.5849999E-03    1.0000008E-24
  2.6199999E-03    9.9999972E-25
  2.6550000E-03    9.9999746E-25
  2.6900000E-03    9.9999844E-25
  2.7250000E-03    1.0000014E-24
  2.7600001E-03    1.0000009E-24
  2.7950001E-03    1.0000002E-24
  2.8299999E-03    1.0000010E-24
  2.8649999E-03    1.0000004E-24
  2.9000000E-03    1.0000001E-24
  2.9350000E-03    1.0000000E-24
  2.9700000E-03    9.9999884E-25
  3.0050001E-03    1.0000000E-24
  3.0400001E-03    1.0000014E-24
  3.0749999E-03    9.9999923E-25
  3.1099999E-03    9.9999874E-25
  3.1450000E-03    1.0000016E-24
  3.1800000E-03    1.0000013E-24
  3.2150000E-03    9.9999913E-25
  3.2500001E-03    9.9999992E-25
  3.2850001E-03    1.0000004E-24
  3.3199999E-03    9.9999953E-25
  3.3549999E-03    9.9999913E-25
  3.3900000E-03    1.0000001E-24
  3.4250000E-03    1.0000016E-24
  3.4600000E-03    1.0000009E-24
  3.4950001E-03    9.9999943E-25
  3.5300001E-03    1.0000005E-24
  3.5649999E-03    1.0000001E-24
  3.5999999E-03    9.9999795E-25
  3.6350000E-03    1.0000004E-24
  3.6700000E-03    1.0000023E-24
  3.7050000E-03    9.9999854E-25
  3.7400001E-03    9.9999815E-25
  3.7750001E-03    1.0000018E-24
  3.8099999E-03    9.9999982E-25
  3.8449999E-03    9.9999834E-25
  3.8800000E-03    1.0000021E-24
  3.9149998E-03    1.0000020E-24
  3.9499998E-03    9.9999775E-25
  3.9849998E-03    9.9999874E-25
  4.0199999E-03    1.0000019E-24
  4.0549999E-03    1.0000004E-24
  4.0899999E-03    9.9999824E-25
  4.1250000E-03    1.0000010E-24
  4.1600000E-03    1.0000033E-24
  4.1950000E-03    1.0000006E-24
  4.2300001E-03    9.9999854E-25
  4.2650001E-03    1.0000003E-24
  4.3000001E-03    9.9999992E-25
  4.3350002E-03    9.9999686E-25
  4.3700002E-03    9.9999864E-25
  4.4049998E-03    1.0000029E-24
  4.4399998E-03    1.0000017E-24
  4.4749998E-03    9.9999893E-25
  4.5099999E-03    1.0000006E-24
  4.5449999E-03    1.0000018E-24
  4.5799999E-03    9.9999953E-25
  4.6150000E-03    9.9999834E-25
  4.6500000E-03    9.9999963E-25
  4.6850001E-03    1.0000002E-24
  4.7200001E-03    9.9999963E-25
  4.7550001E-03    9.9999972E-25
  4.7900002E-03    1.0000009E-24
  4.8250002E-03    1.0000012E-24
  4.8600002E-03    9.9999953E-25
  4.8949998E-03    9.9999923E-25
  4.9299998E-03    1.0000010E-24
  4.9649999E-03    1.0000003E-24
  4.9999999E-03    9.9999893E-25
  5.0349999E-03    1.0000001E-24
  5.0700000E-03    1.0000003E-24
  5.1050000E-03    9.9999943E-25
  5.1400000E-03    1.0000009E-24
  5.1750001E-03    1.0000009E-24
  5.2100001E-03    9.9999874E-25
  5.2450001E-03    1.0000000E-24
  5.2800002E-03    1.0000019E-24
  5.3150002E-03    9.9999824E-25
  5.3500002E-03    9.9999736E-25
  5.3849998E-03    1.0000022E-24
  5.4199998E-03    1.0000019E-24
  5.4549999E-03    9.9999824E-25
  5.4899999E-03    1.0000006E-24
  5.5249999E-03    1.0000035E-24
  5.5600000E-03    9.9999943E-25
  5.5950000E-03    9.9999726E-25
  5.6300000E-03    1.0000008E-24
  5.6650001E-03    1.0000020E-24
  5.7000001E-03    9.9999824E-25
  5.7350001E-03    9.9999608E-25
  5.7700002E-03    1.0000009E-24
  5.8050002E-03    1.0000059E-24
  5.8400002E-03    1.0000003E-24
  5.8749998E-03    9.9999361E-25
  5.9099998E-03    1.0000003E-24
  5.9449999E-03    1.0000075E-24
  5.9799999E-03    9.9999963E-25
  6.0149999E-03    9.9999331E-25
  6.0500000E-03    9.9999805E-25
  6.0850000E-03    1.0000026E-24
  6.1200000E-03    1.0000088E-24
  6.1550001E-03    1.0000081E-24
  6.1900001E-03    9.9997823E-25
  6.2250001E-03    9.9997063E-25
  6.2600002E-03    1.0000449E-24
  6.2950002E-03    1.0000707E-24
  6.3299998E-03    9.9991877E-25
  6.3649998E-03    9.9985418E-25
  6.3999998E-03    1.0001348E-24
  6.4349999E-03    1.0002782E-24
  6.4699999E-03    9.9979590E-25
  6.5049999E-03    9.9950254E-25
  6.5400000E-03    1.0002823E-24
  6.5750000E-03    1.0008484E-24
  6.6100000E-03    9.9965667E-25
  6.6450001E-03    9.9861074E-25
  6.6800001E-03    1.0003250E-24
  6.7150001E-03    1.0021819E-24
  6.7500002E-03    9.9988859E-25
  6.7850002E-03    9.9671510E-25
  6.8199998E-03    9.9948943E-25
  6.8549998E-03    1.0047153E-24
  6.8899998E-03    1.0019019E-24
  6.9249999E-03    9.9363056E-25
  6.9599999E-03    9.9538449E-25
  6.9949999E-03    1.0079080E-24
  7.0300000E-03    1.0094547E-24
  7.0650000E-03    9.9145942E-25
  7.1000000E-03    9.8250772E-25
  7.1350001E-03    1.0066856E-24
  7.1700001E-03    1.0299899E-24
  7.2050001E-03    1.0005155E-24
  7.2400002E-03    9.5186915E-25
  7.2750002E-03    9.8214504E-25
  7.3099998E-03    1.0724115E-24
  7.3449998E-03    1.0528710E-24
  7.3799998E-03    8.9855872E-25
  7.4149999E-03    8.8331526E-25
  7.4499999E-03    1.1298439E-24
  7.4850000E-03    1.2245678E-24
  7.5200000E-03    8.5511408E-25
  7.5550000E-03    6.0432198E-25
  7.5900001E-03    1.1214459E-24
  7.6250001E-03    1.6509796E-24
  7.6600001E-03    9.8491562E-25
  7.6950002E-03   -7.7372718E-27
  7.7300002E-03    7.5344071E-25
  7.7650002E-03    2.4683454E-24
  7.7999998E-03    1.7730201E-24
  7.8349998E-03   -1.0004131E-24
  7.8699999E-03   -7.1819627E-25
  7.9049999E-03    3.5045438E-24
  7.9399999E-03    4.2802709E-24
  7.9750000E-03   -1.7663432E-24
  8.0100000E-03   -4.6855817E-24
  8.0450000E-03    3.3906871E-24
  8.0800001E-03    1.0142490E-23
  8.1150001E-03    2.7984513E-25
  8.1500001E-03   -1.2745947E-23
  8.1850002E-03   -2.2522381E-24
  8.2200002E-03    2.0307798E-23
  8.2550002E-03    1.1953226E-23
  8.2900003E-03   -2.4084796E-23
  8.3250003E-03   -2.3237548E-23
  8.3600003E-03    3.0379983E-23
  8.3950004E-03    4.6262789E-23
  8.4300004E-03   -2.8007863E-23
  8.4650004E-03   -7.5121356E-23
  8.5000005E-03    1.9650363E-23
  8.5349996E-03    1.1908451E-22
  8.5699996E-03    1.0807831E-23
  8.6049996E-03   -1.6928032E-22
  8.6399997E-03   -6.6765811E-23
  8.6749997E-03    2.2862358E-22
  8.7099997E-03    1.7087404E-22
  8.7449998E-03   -2.7687150E-22
  8.7799998E-03   -3.3193982E-22
  8.8149998E-03    2.9881420E-22
  8.8499999E-03    5.7401649E-22
  8.8849999E-03   -2.4789102E-22
  8.9199999E-03   -8.9869932E-22
  8.9550000E-03    7.4037884E-23
  8.9900000E-03    1.3075848E-21
  9.0250000E-03    3.1077290E-22
  9.0600001E-03   -1.7559296E-21
  9.0950001E-03   -9.9880363E-22
  9.1300001E-03    2.1651475E-21
  9.1650002E-03    2.1090955E-21
  9.2000002E-03   -2.3669091E-21
  9.2350002E-03   -3.7336247E-21
  9.2700003E-03    2.1097377E-21
  9.3050003E-03    5.9296046E-21
  9.3400003E-03   -1.0061256E-21
  9.3750004E-03   -8.6247634E-21
  9.4100004E-03   -1.4414359E-21
  9.4450004E-03    1.1560427E-20
  9.4799995E-03    5.8481891E-21
  9.5149996E-03   -1.4145651E-20
  9.5499996E-03   -1.2839833E-20
  9.5849996E-03    1.5360474E-20
  9.6199997E-03    2.2933431E-20
  9.6549997E-03   -1.3603106E-20
  9.6899997E-03   -3.6254157E-20
  9.7249998E-03    6.6501416E-21
  9.7599998E-03    5.2197814E-20
  9.7949998E-03    8.3362398E-21
  9.8299999E-03   -6.8910123E-20
  9.8649999E-03   -3.4540090E-20
  9.8999999E-03    8.2744182E-20
  9.9350000E-03    7.4990818E-20
  9.9700000E-03   -8.7650998E-20
  1.0005000E-02   -1.3159267E-19
  1.0040000E-02    7.4785606E-20
  1.0075000E-02    2.0373621E-19
  1.0110000E-02   -3.2433012E-20
  1.0145000E-02   -2.8633896E-19
  1.0180000E-02   -5.3282054E-20
  1.0215000E-02    3.6755985E-19
  1.0250000E-02    1.9665798E-19
  1.0285000E-02   -4.2633905E-19
  1.0320000E-02   -4.0909466E-19
  1.0355000E-02    4.3044649E-19
  1.0390000E-02    6.9401120E-19
  1.0425000E-02   -3.3576685E-19
  1.0460000E-02   -1.0397810E-18
  1.0495000E-02    8.8095045E-20
  1.0530000E-02    1.4111346E-18
  1.0565000E-02    3.7125487E-19
  1.0600000E-02   -1.7399575E-18
  1.0635000E-02   -1.0945316E-18
  1.0670000E-02    1.9173877E-18
  1.0705000E-02    2.1102318E-18
  1.0740000E-02   -1.7901096E-18
  1.0775000E-02   -3.3990400E-18
  1.0810000E-02    1.1647961E-18
  1.0845000E-02    4.8641479E-18
  1.0880000E-02    1.7476152E-19
  1.0915000E-02   -6.2993207E-18
  1.0950000E-02   -2.4330018E-18
  1.0985000E-02    7.3608867E-18
  1.1020000E-02    5.7471558E-18
  1.1055000E-02   -7.5529514E-18
  1.1090000E-02   -1.0109718E-17
  1.1125000E-02    6.2383671E-18
  1.1160000E-02    1.5273261E-17
  1.1195000E-02   -2.6897327E-18
  1.1230000E-02   -2.0647882E-17
  1.1265000E-02   -3.8055205E-18
  1.1300000E-02    2.5210984E-17
  1.1335000E-02    1.3775980E-17
  1.1370000E-02   -2.7457842E-17
  1.1405000E-02   -2.7331292E-17
  1.1440000E-02    2.5430806E-17
  1.1475000E-02    4.3875830E-17
  1.1510000E-02   -1.6866724E-17
  1.1545000E-02   -6.1802383E-17
  1.1580000E-02   -4.9567418E-19
  1.1615000E-02    7.8227417E-17
  1.1650000E-02    2.8427140E-17
  1.1685000E-02   -8.8846470E-17
  1.1720000E-02   -6.7533599E-17
  1.1755000E-02    8.8017960E-17
  1.1790000E-02    1.1644711E-16
  1.1825000E-02   -6.9184520E-17
  1.1860000E-02   -1.7097874E-16
  1.1895000E-02    2.5727067E-17
  1.1930000E-02    2.2339414E-16
  1.1965000E-02    4.7679720E-17
  1.2000000E-02   -2.6205058E-16
  1.2035000E-02   -1.5325259E-16
  1.2070000E-02    2.7165175E-16
  1.2105000E-02    2.8794816E-16
  1.2140000E-02   -2.3441224E-16
  1.2175000E-02   -4.4126335E-16
  1.2210000E-02    1.3235198E-16
  1.2245000E-02    5.9342705E-16
  1.2280000E-02    4.9171182E-17
  1.2315000E-02   -7.1458532E-16
  1.2350000E-02   -3.1680877E-16
  1.2385000E-02    7.6560508E-16
  1.2420000E-02    6.6384900E-16
  1.2455000E-02   -7.0117541E-16
  1.2490000E-02   -1.0648811E-15
  1.2525000E-02    4.7568825E-16
  1.2560000E-02    1.4716476E-15
  1.2595000E-02   -5.2003915E-17
  1.2630000E-02   -1.8114191E-15
  1.2665000E-02   -5.8729712E-16
  1.2700000E-02    1.9894885E-15
  1.2735000E-02    1.4272847E-15
  1.2770000E-02   -1.8971067E-15
  1.2805000E-02   -2.4085786E-15
  1.2840000E-02    1.4257838E-15
  1.2875000E-02    3.4185028E-15
  1.2910000E-02   -4.8800496E-16
  1.2945000E-02   -4.2885265E-15
  1.2980000E-02   -9.5704495E-16
  1.3015000E-02    4.8013961E-15
  1.3050000E-02    2.8755269E-15
  1.3085000E-02   -4.7106009E-15
  1.3120000E-02   -5.1332433E-15
  1.3155000E-02    3.7736080E-15
  1.3190000E-02    7.4782972E-15
  1.3225000E-02   -1.7982092E-15
  1.3260000E-02   -9.5387472E-15
  1.3295000E-02   -1.3017634E-15
  1.3330000E-02    1.0841642E-14
  1.3365000E-02    5.4480431E-15
  1.3400000E-02   -1.0858519E-14
  1.3435000E-02   -1.0346982E-14
  1.3470000E-02    9.0791666E-15
  1.3505000E-02    1.5458839E-14
  1.3540000E-02   -5.1102442E-15
  1.3575000E-02   -2.0000779E-14
  1.3610000E-02   -1.2106423E-15
  1.3645000E-02    2.2994949E-14
  1.3680000E-02    9.7001815E-15
  1.3715000E-02   -2.3370269E-14
  1.3750000E-02   -1.9735546E-14
  1.3785000E-02    2.0117947E-14
  1.3820000E-02    3.0207451E-14
  1.3855000E-02   -1.2490709E-14
  1.3890000E-02   -3.9544485E-14
  1.3925000E-02    2.2403407E-16
  1.3960000E-02    4.5828040E-14
  1.3995000E-02    1.6253187E-14
  1.4030000E-02   -4.7009150E-14
  1.4065000E-02   -3.5662276E-14
  1.4100000E-02    4.1221309E-14
  1.4135000E-02    5.5819200E-14
  1.4170000E-02   -2.7160249E-14
  1.4205000E-02   -7.3721438E-14
  1.4240000E-02    4.4862287E-15
  1.4275000E-02    8.5807670E-14
  1.4310000E-02    2.5819944E-14
  1.4345000E-02   -8.8398866E-14
  1.4380000E-02   -6.1229078E-14
  1.4415000E-02    7.8286979E-14
  1.4450000E-02    9.7636356E-14
  1.4485000E-02   -5.3419539E-14
  1.4520000E-02   -1.2961134E-13
  1.4555000E-02    1.3570357E-14
  1.4590000E-02    1.5094139E-13
  1.4625000E-02    3.9117482E-14
  1.4660000E-02   -1.5547184E-13
  1.4695000E-02   -9.9866106E-14
  1.4730000E-02    1.3814911E-13
  1.4765000E-02    1.6137857E-13
  1.4800000E-02   -9.6148560E-14
  1.4835000E-02   -2.1442707E-13
  1.4870000E-02    2.9893521E-14
  1.4905000E-02    2.4891924E-13
  1.4940000E-02    5.6243354E-14
  1.4975000E-02   -2.5537100E-13
  1.5010000E-02   -1.5375857E-13
  1.5045000E-02    2.2660323E-13
  1.5080000E-02    2.5050610E-13
  1.5115000E-02   -1.5942724E-13
  1.5150000E-02   -3.3192267E-13
  1.5185000E-02    5.5982467E-14
  1.5220000E-02    3.8290711E-13
  1.5255000E-02    7.5547018E-14
  1.5290000E-02   -3.9017552E-13
  1.5325000E-02   -2.2112539E-13
  1.5360000E-02    3.4474252E-13
  1.5395000E-02    3.6207303E-13
  1.5430000E-02   -2.4412235E-13
  1.5465000E-02   -4.7728423E-13
  1.5500000E-02    9.3791823E-14
  1.5535000E-02    5.4619905E-13
  1.5570000E-02    9.2447758E-14
  1.5605000E-02   -5.5214042E-13
  1.5640000E-02   -2.9341118E-13
  1.5675001E-02    4.8550969E-13
  1.5710000E-02    4.8289600E-13
  1.5745001E-02   -3.4621972E-13
  1.5780000E-02   -6.3314154E-13
  1.5814999E-02    1.4483518E-13
  1.5850000E-02    7.1896970E-13
  1.5884999E-02    9.7905489E-14
  1.5920000E-02   -7.2188235E-13
  1.5954999E-02   -3.5320379E-13
  1.5990000E-02    6.3357891E-13
  1.6024999E-02    5.8788277E-13
  1.6060000E-02   -4.5810128E-13
  1.6094999E-02   -7.6910646E-13
  1.6130000E-02    2.1211323E-13
  1.6164999E-02    8.6936925E-13
  1.6200000E-02    7.6874088E-14
  1.6235000E-02   -8.7080104E-13
  1.6270000E-02   -3.7393596E-13
  1.6305000E-02    7.6822771E-13
  1.6340001E-02    6.4143639E-13
  1.6375000E-02   -5.7062027E-13
  1.6410001E-02   -8.4460938E-13
  1.6445000E-02    3.0010052E-13
  1.6480001E-02    9.5672016E-13
  1.6515000E-02    1.1162426E-14
  1.6550001E-02   -9.6291421E-13
  1.6585000E-02   -3.2559469E-13
  1.6620001E-02    8.6201261E-13
  1.6655000E-02    6.0504970E-13
  1.6690001E-02   -6.6699304E-13
  1.6725000E-02   -8.1630107E-13
  1.6759999E-02    4.0330144E-13
  1.6795000E-02    9.3620879E-13
  1.6829999E-02   -1.0443085E-13
  1.6865000E-02   -9.5456553E-13
  1.6899999E-02   -1.9350889E-13
  1.6935000E-02    8.7412136E-13
  1.6969999E-02    4.5595049E-13
  1.7005000E-02   -7.0998762E-13
  1.7039999E-02   -6.5397048E-13
  1.7075000E-02    4.8854567E-13
  1.7109999E-02    7.6971480E-13
  1.7145000E-02   -2.4266548E-13
  1.7180000E-02   -7.9961471E-13
  1.7215000E-02    4.1028463E-15
  1.7250000E-02    7.5171455E-13
  1.7285001E-02    1.9998284E-13
  1.7320000E-02   -6.4292186E-13
  1.7355001E-02   -3.4781889E-13
  1.7390000E-02    5.0020865E-13
  1.7425001E-02    4.2919121E-13
  1.7460000E-02   -3.5702043E-13
  1.7495001E-02   -4.5264918E-13
  1.7530000E-02    2.3993562E-13
  1.7565001E-02    4.3962143E-13
  1.7600000E-02   -1.6184824E-13
  1.7635001E-02   -4.1333039E-13
  1.7670000E-02    1.2837263E-13
  1.7704999E-02    4.0208364E-13
  1.7740000E-02   -1.3420382E-13
  1.7774999E-02   -4.4176940E-13
  1.7810000E-02    1.4552971E-13
  1.7844999E-02    5.5120513E-13
  1.7880000E-02   -1.0775775E-13
  1.7914999E-02   -7.0993385E-13
  1.7950000E-02   -1.9061741E-14
  1.7984999E-02    8.7841149E-13
  1.8020000E-02    2.5584851E-13
  1.8054999E-02   -1.0152754E-12
  1.8090000E-02   -6.2740861E-13
  1.8124999E-02    1.0442675E-12
  1.8160000E-02    1.1289019E-12
  1.8195000E-02   -8.5203123E-13
  1.8230001E-02   -1.6638697E-12
  1.8265000E-02    3.7539001E-13
  1.8300001E-02    2.0837750E-12
  1.8335000E-02    3.5493768E-13
  1.8370001E-02   -2.2770037E-12
  1.8405000E-02   -1.2879973E-12
  1.8440001E-02    2.1323451E-12
  1.8475000E-02    2.3508760E-12
  1.8510001E-02   -1.4834984E-12
  1.8545000E-02   -3.3127006E-12
  1.8580001E-02    2.6694012E-13
  1.8615000E-02    3.8259157E-12
  1.8650001E-02    1.3228713E-12
  1.8685000E-02   -3.6845366E-12
  1.8719999E-02   -3.0046733E-12
  1.8755000E-02    2.8412101E-12
  1.8789999E-02    4.5685769E-12
  1.8825000E-02   -1.1909449E-12
  1.8859999E-02   -5.6415241E-12
  1.8895000E-02   -1.2532014E-12
  1.8929999E-02    5.6303677E-12
  1.8965000E-02    3.9639438E-12
  1.8999999E-02   -4.2708753E-12
  1.9035000E-02   -6.1900996E-12
  1.9069999E-02    1.8542982E-12
  1.9105000E-02    7.5513233E-12
  1.9140000E-02    1.3551676E-12
  1.9175000E-02   -7.7348128E-12
  1.9210000E-02   -5.1736319E-12
  1.9245001E-02    6.0422639E-12
  1.9280000E-02    8.6617926E-12
  1.9315001E-02   -2.2696409E-12
  1.9350000E-02   -1.0391514E-11
  1.9385001E-02   -2.5161941E-12
  1.9420000E-02    9.9146594E-12
  1.9455001E-02    7.1837692E-12
  1.9490000E-02   -7.5837036E-12
  1.9525001E-02   -1.1428913E-11
  1.9560000E-02    3.0602621E-12
  1.9595001E-02    1.4250639E-11
  1.9630000E-02    3.7476159E-12
  1.9664999E-02   -1.3584571E-11
  1.9700000E-02   -1.0689743E-11
  1.9734999E-02    9.1317292E-12
  1.9770000E-02    1.5249442E-11
  1.9804999E-02   -2.9035411E-12
  1.9840000E-02   -1.7386927E-11
  1.9874999E-02   -4.3099218E-12
  1.9910000E-02    1.7180410E-11
  1.9944999E-02    1.2874411E-11
  1.9980000E-02   -1.2362149E-11
  2.0014999E-02   -1.9962214E-11
  2.0050000E-02    2.7436844E-12
  2.0085000E-02    2.1365368E-11
  2.0120000E-02    7.0740709E-12
  2.0155000E-02   -1.7932364E-11
  2.0190001E-02   -1.4309439E-11
  2.0225000E-02    1.2776305E-11
  2.0260001E-02    2.0792172E-11
  2.0295000E-02   -4.1412559E-12
  2.0330001E-02   -2.4714456E-11
  2.0365000E-02   -9.0864252E-12
  2.0400001E-02    2.0097889E-11
  2.0435000E-02    1.9689517E-11
  2.0470001E-02   -8.8271005E-12
  2.0505000E-02   -2.2084098E-11
  2.0540001E-02   -7.7566111E-13
  2.0575000E-02    2.1388297E-11
  2.0609999E-02    9.2479548E-12
  2.0645000E-02   -1.9840818E-11
  2.0679999E-02   -2.1308776E-11
  2.0715000E-02    9.4367153E-12
  2.0749999E-02    2.8673909E-11
  2.0785000E-02    8.4460477E-12
  2.0819999E-02   -2.1833420E-11
  2.0855000E-02   -1.8797280E-11
  2.0889999E-02    1.0583364E-11
  2.0925000E-02    2.0177153E-11
  2.0959999E-02   -4.9280896E-12
  2.0995000E-02   -2.5052783E-11
  2.1029999E-02   -6.0594281E-12
  2.1065000E-02    2.7142769E-11
  2.1100000E-02    2.5680470E-11
  2.1135001E-02   -1.0656985E-11
  2.1170000E-02   -3.1915623E-11
  2.1205001E-02   -1.0532352E-11
  2.1240000E-02    1.9622132E-11
  2.1275001E-02    1.4915286E-11
  2.1310000E-02   -1.3405100E-11
  2.1345001E-02   -1.7607938E-11
  2.1380000E-02    1.3006133E-11
  2.1415001E-02    3.3311406E-11
  2.1450000E-02    7.9907105E-12
  2.1485001E-02   -3.3530272E-11
  2.1520000E-02   -3.5382600E-11
  2.1555001E-02    5.1731037E-12
  2.1590000E-02    3.2376383E-11
  2.1624999E-02    1.2101461E-11
  2.1660000E-02   -1.8373619E-11
  2.1694999E-02   -7.7717303E-12
  2.1730000E-02    2.7454941E-11
  2.1764999E-02    2.4582451E-11
  2.1800000E-02   -2.5680499E-11
  2.1834999E-02   -5.4769893E-11
  2.1870000E-02   -1.5466625E-11
  2.1904999E-02    4.2075999E-11
  2.1940000E-02    4.1012325E-11
  2.1974999E-02   -7.2815295E-12
  2.2010000E-02   -2.3886008E-11
  2.2045000E-02    1.1150093E-11
  2.2080000E-02    2.8048310E-11
  2.2115000E-02   -1.5957513E-11
  2.2150001E-02   -6.0149601E-11
  2.2185000E-02   -3.1258694E-11
  2.2220001E-02    4.0058710E-11
  2.2255000E-02    6.1889278E-11
  2.2290001E-02    1.5526563E-11
  2.2325000E-02   -2.5752745E-11
  2.2360001E-02   -1.3217980E-11
  2.2395000E-02    1.1267162E-11
  2.2430001E-02   -7.3923706E-12
  2.2465000E-02   -4.6654024E-11
  2.2500001E-02   -3.9541672E-11
  2.2535000E-02    2.3477918E-11
  2.2569999E-02    7.3543581E-11
  2.2605000E-02    5.1703052E-11
  2.2639999E-02   -1.4163688E-11
  2.2675000E-02   -4.6768832E-11
  2.2709999E-02   -2.2288586E-11
  2.2745000E-02    2.1629120E-12
  2.2779999E-02   -1.9687942E-11
  2.2815000E-02   -4.3879976E-11
  2.2849999E-02   -5.8201707E-13
  2.2885000E-02    8.1602808E-11
  2.2919999E-02    9.3435856E-11
  2.2955000E-02    4.0796763E-12
  2.2990000E-02   -7.9347237E-11
  2.3025000E-02   -6.2020770E-11
  2.3060000E-02    2.2839124E-12
  2.3095001E-02    6.5712067E-12
  2.3130000E-02   -3.3487619E-11
  2.3165001E-02   -1.1213726E-11
  2.3200000E-02    8.1008179E-11
  2.3235001E-02    1.1797208E-10
  2.3270000E-02    2.9395764E-11
  2.3305001E-02   -8.5849786E-11
  2.3340000E-02   -9.8627481E-11
  2.3375001E-02   -2.4692668E-11
  2.3410000E-02    2.2876060E-11
  2.3445001E-02    9.1957579E-12
  2.3480000E-02    8.9259763E-12
  2.3514999E-02    6.6608344E-11
  2.3550000E-02    1.1389185E-10
  2.3584999E-02    6.5466486E-11
  2.3620000E-02   -5.1617079E-11
  2.3654999E-02   -1.1876232E-10
  2.3690000E-02   -6.9222288E-11
  2.3724999E-02    3.3400050E-11
  2.3760000E-02    8.2352646E-11
  2.3794999E-02    6.4886374E-11
  2.3830000E-02    6.1516695E-11
  2.3864999E-02    1.0556560E-10
  2.3900000E-02    1.1463114E-10
  2.3934999E-02    1.9356435E-11
  2.3970000E-02   -9.4885114E-11
  2.4005000E-02   -7.7661093E-11
  2.4040001E-02    6.8211679E-11
  2.4075000E-02    1.7811209E-10
  2.4110001E-02    1.6237597E-10
  2.4145000E-02    1.2321658E-10
  2.4180001E-02    1.6386867E-10
  2.4215000E-02    2.0826900E-10
  2.4250001E-02    1.3953387E-10
  2.4285000E-02    2.6236738E-11
  2.4320001E-02    4.3513006E-11
  2.4355000E-02    2.0514877E-10
  2.4390001E-02    3.4451039E-10
  2.4425000E-02    3.6731460E-10
  2.4460001E-02    3.5955400E-10
  2.4495000E-02    4.0447642E-10
  2.4529999E-02    4.4698514E-10
  2.4565000E-02    4.2032880E-10
  2.4599999E-02    3.8758338E-10
  2.4635000E-02    4.5507323E-10
  2.4669999E-02    6.1820982E-10
  2.4705000E-02    7.8322931E-10
  2.4739999E-02    8.9492919E-10
  2.4775000E-02    9.7043262E-10
  2.4809999E-02    1.0404176E-09
  2.4845000E-02    1.1179619E-09
  2.4879999E-02    1.2101731E-09
  2.4915000E-02    1.3260609E-09
  2.4950000E-02    1.4826094E-09
  2.4985000E-02    1.7026667E-09
  2.5020000E-02    1.9745134E-09
  2.5055001E-02    2.2300060E-09
  2.5090000E-02    2.4220834E-09
  2.5125001E-02    2.6084483E-09
  2.5160000E-02    2.8803970E-09
  2.5195001E-02    3.2243548E-09
  2.5230000E-02    3.5575440E-09
  2.5265001E-02    3.8931707E-09
  2.5300000E-02    4.3323980E-09
  2.5335001E-02    4.8700963E-09
  2.5370000E-02    5.3702007E-09
  2.5405001E-02    5.7989964E-09
  2.5440000E-02    6.3185621E-09
  2.5474999E-02    7.0392399E-09
  2.5510000E-02    7.8351619E-09
  2.5544999E-02    8.5586906E-09
  2.5580000E-02    9.3003365E-09
  2.5614999E-02    1.0232806E-08
  2.5650000E-02    1.1302037E-08
  2.5684999E-02    1.2319555E-08
  2.5720000E-02    1.3313327E-08
  2.5754999E-02    1.4518007E-08
  2.5790000E-02    1.6004853E-08
  2.5824999E-02    1.7583188E-08
  2.5860000E-02    1.9129946E-08
  2.5895000E-02    2.0775312E-08
  2.5930000E-02    2.2648999E-08
  2.5965000E-02    2.4662810E-08
  2.6000001E-02    2.6705937E-08
  2.6035000E-02    2.8872527E-08
  2.6070001E-02    3.1328366E-08
  2.6105000E-02    3.4086977E-08
  2.6140001E-02    3.7059074E-08
  2.6175000E-02    4.0209265E-08
  2.6210001E-02    4.3543025E-08
  2.6245000E-02    4.7046335E-08
  2.6280001E-02    5.0737672E-08
  2.6315000E-02    5.4689778E-08
  2.6350001E-02    5.8935054E-08
  2.6385000E-02    6.3474104E-08
  2.6419999E-02    6.8403658E-08
  2.6455000E-02    7.3846749E-08
  2.6489999E-02    7.9717623E-08
  2.6525000E-02    8.5786695E-08
  2.6559999E-02    9.2025495E-08
  2.6595000E-02    9.8648584E-08
  2.6629999E-02    1.0577227E-07
  2.6665000E-02    1.1330060E-07
  2.6699999E-02    1.2124433E-07
  2.6735000E-02    1.2984812E-07
  2.6769999E-02    1.3921897E-07
  2.6805000E-02    1.4913704E-07
  2.6839999E-02    1.5941541E-07
  2.6875000E-02    1.7014980E-07
  2.6910000E-02    1.8146757E-07
  2.6945001E-02    1.9333199E-07
  2.6980000E-02    2.0576874E-07