 -4.8000002E-03    1.0000000E-24
 -4.7650002E-03    1.0000002E-24
 -4.7300002E-03    1.0000001E-24
 -4.6950001E-03    1.0000000E-24
 -4.6600001E-03    1.0000002E-24
 -4.6250001E-03    1.0000003E-24
 -4.5900000E-03    1.0000001E-24
 -4.5550000E-03    1.0000001E-24
 -4.5200000E-03    1.0000003E-24
 -4.4849999E-03    1.0000000E-24
 -4.4499999E-03    9.9999982E-25
 -4.4149999E-03    1.0000003E-24
 -4.3799998E-03    1.0000004E-24
 -4.3449998E-03    9.9999972E-25
 -4.3100002E-03    1.0000000E-24
 -4.2750002E-03    1.0000005E-24
 -4.2400002E-03    1.0000003E-24
 -4.2050001E-03    9.9999982E-25
 -4.1700001E-03    1.0000003E-24
 -4.1350001E-03    1.0000004E-24
 -4.1000000E-03    9.9999972E-25
 -4.0650000E-03    9.9999963E-25
 -4.0300000E-03    9.9999992E-25
 -3.9949999E-03    1.0000002E-24
 -3.9599999E-03    1.0000001E-24
 -3.9249999E-03    1.0000000E-24
 -3.8900001E-03    1.0000002E-24
 -3.8550000E-03    1.0000002E-24
 -3.8200000E-03    9.9999992E-25
 -3.7849999E-03    1.0000001E-24
 -3.7499999E-03    1.0000009E-24
 -3.7150001E-03    1.0000006E-24
 -3.6800001E-03    9.9999963E-25
 -3.6450000E-03    9.9999963E-25
 -3.6100000E-03    9.9999972E-25
 -3.5750000E-03    1.0000003E-24
 -3.5399999E-03    9.9999923E-25
 -3.5049999E-03    1.0000036E-24
 -3.4700001E-03    1.0000135E-24
 -3.4350001E-03    9.9997468E-25
 -3.4000000E-03    9.9997734E-25
 -3.3650000E-03    1.0000796E-24
 -3.3300000E-03    9.9959178E-25
 -3.2949999E-03    9.9980034E-25
 -3.2599999E-03    1.0009077E-24
 -3.2250001E-03    1.0003893E-24
 -3.1900001E-03    1.0001256E-24
 -3.1550000E-03    1.0101639E-24
 -3.1200000E-03    9.9285176E-25
 -3.0850000E-03    9.8432604E-25
 -3.0499999E-03    1.0443476E-24
 -3.0149999E-03    1.0745730E-24
 -2.9800001E-03    8.3349899E-25
 -2.9450001E-03    9.3814100E-25
 -2.9100000E-03    1.2927908E-24
 -2.8750000E-03    9.0503053E-25
 -2.8400000E-03    8.6466817E-25
 -2.8049999E-03    2.9214493E-24
 -2.7699999E-03    9.1986299E-25
 -2.7350001E-03   -3.2155172E-24
 -2.7000001E-03    3.0994306E-24
 -2.6650000E-03    7.7476278E-24
 -2.6300000E-03   -5.3988816E-24
 -2.5950000E-03   -4.6141677E-24
 -2.5599999E-03    2.1770500E-23
 -2.5249999E-03    4.5809788E-24
 -2.4900001E-03   -3.4609896E-23
 -2.4550001E-03    1.8852968E-23
 -2.4200000E-03    2.9717744E-23
 -2.3850000E-03   -4.4657451E-23
 -2.3500000E-03   -8.4098110E-24
 -2.3149999E-03    2.3354379E-23
 -2.2799999E-03   -1.0056609E-23
 -2.2450001E-03   -5.6717370E-23
 -2.2100001E-03    2.6629652E-22
 -2.1750000E-03    2.7593400E-22
 -2.1400000E-03   -3.4432539E-22
 -2.1050000E-03   -3.4052200E-23
 -2.0699999E-03    1.6305131E-22
 -2.0349999E-03    1.1576390E-22
 -2.0000001E-03   -4.8848822E-22
 -1.9650001E-03   -1.5228515E-22
 -1.9300000E-03    8.8354188E-22
 -1.8950000E-03    2.1707304E-22
 -1.8600000E-03   -9.5611254E-22
 -1.8250000E-03   -1.1817299E-21
 -1.7900000E-03    1.7389256E-22
 -1.7550000E-03   -5.8691357E-22
 -1.7199999E-03   -2.6125771E-21
 -1.6850000E-03   -1.6815133E-21
 -1.6500000E-03    2.1422578E-21
 -1.6150000E-03    1.4613552E-21
 -1.5800000E-03   -3.6458147E-21
 -1.5450000E-03   -1.4308293E-21
 -1.5100000E-03    7.9350370E-21
 -1.4750001E-03    2.2711191E-21
 -1.4400000E-03   -1.4154928E-20
 -1.4050000E-03    2.0982406E-21
 -1.3700000E-03    2.5487895E-20
 -1.3350000E-03   -2.0207740E-20
 -1.3000000E-03   -4.3129782E-20
 -1.2650000E-03    6.3832552E-20
 -1.2300001E-03    6.1208929E-20
 -1.1950000E-03   -1.5557188E-19
 -1.1600000E-03   -8.5757491E-20
 -1.1250000E-03    2.1968896E-19
 -1.0900000E-03    6.6736473E-20
 -1.0550000E-03   -3.3568768E-19
 -1.0200000E-03    1.1248004E-20
 -9.8500005E-04    4.5777990E-19
 -9.5000002E-04   -1.6850523E-19
 -9.1499998E-04   -4.9379410E-19
 -8.8000001E-04    4.9635092E-19
 -8.4499997E-04    4.8848019E-19
 -8.1000000E-04   -9.0294922E-19
 -7.7500002E-04   -5.7930586E-19
 -7.3999999E-04    1.4349763E-18
 -7.0500001E-04    6.9822300E-19
 -6.6999998E-04   -2.0310522E-18
 -6.3500000E-04   -7.6173320E-19
 -6.0000003E-04    2.8947010E-18
 -5.6499999E-04    1.3345706E-18
 -5.3000002E-04   -3.2036310E-18
 -4.9499999E-04   -2.4002234E-18
 -4.6000001E-04    2.1881096E-18
 -4.2500001E-04    3.5957959E-18
 -3.9000000E-04   -4.0539814E-19
 -3.5500000E-04   -4.6688489E-18
 -3.1999999E-04   -3.4856394E-18
 -2.8499999E-04    4.5640662E-18
 -2.5000001E-04    8.0902251E-18
 -2.1499999E-04   -2.1444248E-18
 -1.8000000E-04   -1.4871518E-17
 -1.4500000E-04   -7.6814895E-18
 -1.1000000E-04    2.0739865E-17
 -7.5000004E-05    2.6839182E-17
 -3.9999999E-05   -2.3779835E-17
 -4.9999999E-06   -6.0304418E-17
  2.9999999E-05    1.5769829E-17
  6.5000000E-05    1.0264905E-16
  9.9999997E-05    5.5328018E-18
  1.3499999E-04   -1.5892967E-16
  1.7000000E-04   -6.2220526E-17
  2.0500000E-04    2.1828219E-16
  2.3999999E-04    1.6026021E-16
  2.7500000E-04   -2.6281585E-16
  3.1000000E-04   -3.1718043E-16
  3.4500001E-04    2.6303446E-16
  3.8000001E-04    5.3721079E-16
  4.1499999E-04   -1.8233139E-16
  4.4999999E-04   -7.8497323E-16
  4.8500000E-04   -5.5622735E-18
  5.2000000E-04    1.0181772E-15
  5.5499998E-04    3.2988548E-16
  5.9000001E-04   -1.1519541E-15
  6.2499999E-04   -8.2037534E-16
  6.6000002E-04    1.0296715E-15
  6.9500000E-04    1.4301805E-15
  7.3000003E-04   -4.7749836E-16
  7.6500000E-04   -2.0103287E-15
  7.9999998E-04   -6.2714012E-16
  8.3500001E-04    2.3679185E-15
  8.6999999E-04    2.3281450E-15
  9.0500002E-04   -2.2543174E-15
  9.4000000E-04   -4.5761052E-15
  9.7499997E-04    1.4119413E-15
  1.0100000E-03    7.2925149E-15
  1.0450000E-03    5.3239149E-16
  1.0800000E-03   -1.0111470E-14
  1.1150000E-03   -3.8481130E-15
  1.1500000E-03    1.2580606E-14
  1.1849999E-03    8.5748754E-15
  1.2200000E-03   -1.4125019E-14
  1.2550000E-03   -1.4358282E-14
  1.2900000E-03    1.4379690E-14
  1.3250000E-03    2.0511931E-14
  1.3600000E-03   -1.3196276E-14
  1.3950000E-03   -2.6300634E-14
  1.4299999E-03    1.0561491E-14
  1.4650000E-03    3.0919128E-14
  1.5000000E-03   -6.5561439E-15
  1.5350000E-03   -3.3612144E-14
  1.5700000E-03    1.1591325E-15
  1.6050000E-03    3.3333386E-14
  1.6400000E-03    5.2024294E-15
  1.6749999E-03   -2.9428601E-14
  1.7100000E-03   -1.2179701E-14
  1.7450000E-03    2.1315593E-14
  1.7800000E-03    1.9761473E-14
  1.8150000E-03   -8.0120220E-15
  1.8500000E-03   -2.8648372E-14
  1.8850000E-03   -1.3387571E-14
  1.9200000E-03    3.8032752E-14
  1.9550000E-03    4.6633775E-14
  1.9900000E-03   -4.4073303E-14
  2.0250001E-03   -9.3355669E-14
  2.0600001E-03    4.0675142E-14
  2.0949999E-03    1.5095272E-13
  2.1299999E-03   -2.1706061E-14
  2.1650000E-03   -2.1150308E-13
  2.2000000E-03   -1.4877398E-14
  2.2350000E-03    2.6568342E-13
  2.2700001E-03    6.6197224E-14
  2.3050001E-03   -3.0835290E-13
  2.3399999E-03   -1.3208954E-13
  2.3749999E-03    3.3308781E-13
  2.4100000E-03    2.1685609E-13
  2.4450000E-03   -3.2065621E-13
  2.4800000E-03   -3.1371130E-13
  2.5150001E-03    2.4318671E-13
  2.5500001E-03    3.8554766E-13
  2.5849999E-03   -1.0108587E-13
  2.6199999E-03   -3.9179231E-13
  2.6550000E-03   -6.9820160E-14
  2.6900000E-03    3.2682345E-13
  2.7250000E-03    2.3974591E-13
  2.7600001E-03   -2.0378976E-13
  2.7950001E-03   -4.0328827E-13
  2.8299999E-03    1.1697326E-14
  2.8649999E-03    5.2777585E-13
  2.9000000E-03    2.4687687E-13
  2.9350000E-03   -5.4055913E-13
  2.9700000E-03   -4.7789203E-13
  3.0050001E-03    4.3274396E-13
  3.0400001E-03    5.4493443E-13
  3.0749999E-03   -3.1719917E-13
  3.1099999E-03   -3.9605756E-13
  3.1450000E-03    3.4399615E-13
  3.1800000E-03    9.6398787E-14
  3.2150000E-03   -5.9456183E-13
  3.2500001E-03    2.3957312E-13
  3.2850001E-03    1.0600955E-12
  3.3199999E-03   -5.2083424E-13
  3.3549999E-03   -1.6892038E-12
  3.3900000E-03    7.0114276E-13
  3.4250000E-03    2.4792653E-12
  3.4600000E-03   -5.9794286E-13
  3.4950001E-03   -3.2316736E-12
  3.5300001E-03    8.7013553E-14
  3.5649999E-03    3.5228368E-12
  3.5999999E-03    5.7440142E-13
  3.6350000E-03   -3.0595166E-12
  3.6700000E-03   -8.0607596E-13
  3.7050000E-03    2.1228388E-12
  3.7400001E-03    4.5247004E-13
  3.7750001E-03   -8.6322410E-13
  3.8099999E-03    6.1772560E-13
  3.8449999E-03   -6.7803808E-13
  3.8800000E-03   -2.8195530E-12
  3.9149998E-03    1.9774887E-12
  3.9499998E-03    6.2046405E-12
  3.9849998E-03   -2.2610436E-12
  4.0199999E-03   -9.9926760E-12
  4.0549999E-03    1.6679996E-12
  4.0899999E-03    1.3875831E-11
  4.1250000E-03   -1.8081336E-13
  4.1600000E-03   -1.7751377E-11
  4.1950000E-03   -3.0065536E-12
  4.2300001E-03    1.9653567E-11
  4.2650001E-03    6.3182471E-12
  4.3000001E-03   -1.8781853E-11
  4.3350002E-03   -6.7021761E-12
  4.3700002E-03    1.8298160E-11
  4.4049998E-03    5.3122832E-12
  4.4399998E-03   -1.9389323E-11
  4.4749998E-03   -4.8899552E-12
  4.5099999E-03    1.8711083E-11
  4.5449999E-03    2.1349099E-12
  4.5799999E-03   -1.8304936E-11
  4.6150000E-03    4.3713835E-12
  4.6500000E-03    2.4245266E-11
  4.6850001E-03   -6.1485474E-12
  4.7200001E-03   -3.0147249E-11
  4.7550001E-03    2.4264666E-12
  4.7900002E-03    2.7944466E-11
  4.8250002E-03   -3.3511696E-12
  4.8600002E-03   -2.4268108E-11
  4.8949998E-03    9.7896092E-12
  4.9299998E-03    2.5676761E-11
  4.9649999E-03   -1.1931157E-11
  4.9999999E-03   -2.0133038E-11
  5.0349999E-03    2.0982797E-11
  5.0700000E-03    1.3983590E-11
  5.1050000E-03   -3.9690803E-11
  5.1400000E-03   -2.0348261E-11
  5.1750001E-03    5.1855371E-11
  5.2100001E-03    3.1401139E-11
  5.2450001E-03   -5.1408294E-11
  5.2800002E-03   -3.0705046E-11
  5.3150002E-03    5.7195280E-11
  5.3500002E-03    3.3184667E-11
  5.3849998E-03   -6.4691349E-11
  5.4199998E-03   -4.5578420E-11
  5.4549999E-03    5.3837126E-11
  5.4899999E-03    4.2084031E-11
  5.5249999E-03   -4.1996562E-11
  5.5600000E-03   -1.5281906E-11
  5.5950000E-03    6.3540000E-11
  5.6300000E-03    1.0313470E-11
  5.6650001E-03   -8.1314816E-11
  5.7000001E-03   -1.5746618E-11
  5.7350001E-03    8.2385369E-11
  5.7700002E-03    5.7304209E-12
  5.8050002E-03   -9.0986392E-11
  5.8400002E-03    2.2855385E-12
  5.8749998E-03    1.0039158E-10
  5.9099998E-03    1.0150830E-11
  5.9449999E-03   -7.4797508E-11
  5.9799999E-03    2.9631200E-12
  6.0149999E-03    6.0135966E-11
  6.0500000E-03   -2.2294980E-11
  6.0850000E-03   -6.2015039E-11
  6.1200000E-03    3.3455638E-11
  6.1550001E-03    6.9788161E-11
  6.1900001E-03   -2.8307108E-11
  6.2250001E-03   -4.7517563E-11
  6.2600002E-03    5.9823362E-11
  6.2950002E-03    4.9775552E-11
  6.3299998E-03   -8.6927847E-11
  6.3649998E-03   -4.9704470E-11
  6.3999998E-03    1.0706070E-10
  6.4349999E-03    4.5645394E-11
  6.4699999E-03   -1.0833719E-10
  6.5049999E-03   -1.3487181E-11
  6.5400000E-03    1.4040308E-10
  6.5750000E-03    1.5849303E-11
  6.6100000E-03   -1.3958261E-10
  6.6450001E-03   -7.0581791E-12
  6.6800001E-03    1.5563528E-10
  6.7150001E-03    3.5926966E-11
  6.7500002E-03   -1.1936820E-10
  6.7850002E-03   -1.2575655E-11
  6.8199998E-03    1.2062805E-10
  6.8549998E-03    4.8444334E-12
  6.8899998E-03   -1.1035083E-10
  6.9249999E-03    4.8356891E-11
  6.9599999E-03    1.7022875E-10
  6.9949999E-03   -5.5201531E-11
  7.0300000E-03   -2.0735150E-10
  7.0650000E-03    9.4498596E-11
  7.1000000E-03    2.8854380E-10
  7.1350001E-03   -3.0820513E-11
  7.1700001E-03   -2.4328811E-10
  7.2050001E-03    3.6345323E-11
  7.2400002E-03    2.1555382E-10
  7.2750002E-03    3.6101663E-11
  7.3099998E-03   -6.5381742E-11
  7.3449998E-03    2.8092827E-11
  7.3799998E-03    7.0948136E-11
  7.4149999E-03    3.4210277E-11
  7.4499999E-03    1.7096198E-11
  7.4850000E-03    6.0452365E-11
  7.5200000E-03    1.2548762E-11
  7.5550000E-03   -1.9418032E-10
  7.5900001E-03   -1.1372375E-10
  7.6250001E-03    2.7813943E-10
  7.6600001E-03    1.7659484E-10
  7.6950002E-03   -2.2025304E-10
  7.7300002E-03    3.1931523E-11
  7.7650002E-03    3.4561773E-10
  7.7999998E-03   -9.6046730E-12
  7.8349998E-03   -2.2868354E-10
  7.8699999E-03    2.4904977E-11
  7.9049999E-03    1.1642512E-10
  7.9399999E-03    8.9859425E-11
  7.9750000E-03    5.6105464E-11
  8.0100000E-03   -1.7831353E-10
  8.0450000E-03   -1.2550427E-10
  8.0800001E-03    2.7111796E-10
  8.1150001E-03    1.4665716E-10
  8.1500001E-03   -2.4078245E-10
  8.1850002E-03   -1.4218129E-10
  8.2200002E-03    9.9529052E-11
  8.2550002E-03    1.2555455E-10
  8.2900003E-03    7.8932805E-11
  8.3250003E-03   -1.8651602E-10
  8.3600003E-03   -3.4606215E-10
  8.3950004E-03    8.9241427E-11
  8.4300004E-03    3.5597611E-10
  8.4650004E-03    2.5792452E-11
  8.5000005E-03   -4.2798834E-11
  8.5349996E-03    2.3854292E-11
  8.5699996E-03   -2.8039640E-10
  8.6049996E-03   -1.2164134E-10
  8.6399997E-03    3.0215855E-10
  8.6749997E-03   -1.9353323E-10
  8.7099997E-03   -5.6829830E-10
  8.7449998E-03    1.3153667E-10
  8.7799998E-03    2.1033833E-10
  8.8149998E-03   -3.5563258E-10
  8.8499999E-03   -2.5696558E-11
  8.8849999E-03    1.3065300E-10
  8.9199999E-03   -3.9033674E-10
  8.9550000E-03   -6.0822201E-11
  8.9900000E-03    6.5412141E-11
  9.0250000E-03   -5.7119243E-10
  9.0600001E-03    1.0490934E-10
  9.0950001E-03    6.2887379E-10
  9.1300001E-03   -6.9572303E-10
  9.1650002E-03   -6.1692973E-10
  9.2000002E-03    7.8638335E-10
  9.2350002E-03   -1.2611899E-10
  9.2700003E-03   -9.9928688E-10
  9.3050003E-03    3.2086916E-10
  9.3400003E-03    3.0546118E-10
  9.3750004E-03   -8.5492402E-10
  9.4100004E-03   -3.5879125E-10
  9.4450004E-03    1.6750598E-10
  9.4799995E-03   -3.3581846E-11
  9.5149996E-03    2.1965076E-10
  9.5499996E-03    9.9757834E-11
  9.5849996E-03   -3.6194434E-10
  9.6199997E-03   -1.0903139E-10
  9.6549997E-03   -9.2191380E-11
  9.6899997E-03   -2.7224567E-10
  9.7249998E-03   -8.0542593E-11
  9.7599998E-03   -1.2926578E-10
  9.7949998E-03   -1.5153054E-10
  9.8299999E-03    4.8305599E-11
  9.8649999E-03    1.0424829E-10
  9.8999999E-03    5.5127636E-10
  9.9350000E-03    2.8389008E-10
  9.9700000E-03   -1.1338239E-09
  1.0005000E-02   -5.1582816E-10
  1.0040000E-02    5.7741473E-10
  1.0075000E-02   -6.9196227E-10
  1.0110000E-02   -2.6338290E-10
  1.0145000E-02    2.0553383E-09
  1.0180000E-02    3.0235597E-10
  1.0215000E-02   -1.6514534E-09
  1.0250000E-02    7.6824030E-10
  1.0285000E-02    8.1334894E-10
  1.0320000E-02   -1.0629300E-09
  1.0355000E-02    7.2333844E-10
  1.0390000E-02    4.6250245E-10
  1.0425000E-02   -2.1712765E-09
  1.0460000E-02    4.2713921E-10
  1.0495000E-02    2.4567433E-09
  1.0530000E-02   -6.0113636E-10
  1.0565000E-02    6.6400600E-11
  1.0600000E-02    2.4858453E-09
  1.0635000E-02   -7.2396666E-10
  1.0670000E-02   -2.6180227E-09
  1.0705000E-02    1.5822349E-10
  1.0740000E-02    1.4141496E-09
  1.0775000E-02    5.6268967E-10
  1.0810000E-02   -3.4552561E-10
  1.0845000E-02   -2.8009736E-10
  1.0880000E-02    1.6771704E-09
  1.0915000E-02    1.4800581E-09
  1.0950000E-02   -1.0602469E-09
  1.0985000E-02   -4.1957018E-10
  1.1020000E-02    4.2887657E-10
  1.1055000E-02   -1.1556819E-09
  1.1090000E-02    3.9308398E-10
  1.1125000E-02    1.0042206E-09
  1.1160000E-02   -1.5777722E-09
  1.1195000E-02    5.4367860E-10
  1.1230000E-02    2.1887341E-09
  1.1265000E-02   -2.0364908E-09
  1.1300000E-02   -3.5747663E-10
  1.1335000E-02    3.5090080E-09
  1.1370000E-02   -1.5391091E-09
  1.1405000E-02   -2.2501512E-09
  1.1440000E-02    3.9317829E-09
  1.1475000E-02   -1.0554034E-09
  1.1510000E-02   -4.3659600E-09
  1.1545000E-02    4.4308317E-09
  1.1580000E-02    2.2167781E-09
  1.1615000E-02   -6.1095138E-09
  1.1650000E-02    7.2929868E-10
  1.1685000E-02    4.6905866E-09
  1.1720000E-02   -3.4229661E-09
  1.1755000E-02   -1.5799397E-10
  1.1790000E-02    4.8230171E-09
  1.1825000E-02   -4.2100159E-09
  1.1860000E-02   -4.6652531E-09
  1.1895000E-02    3.2750049E-09
  1.1930000E-02    9.6983099E-10
  1.1965000E-02   -8.3495255E-10
  1.2000000E-02    2.7793661E-09
  1.2035000E-02    8.1394602E-10
  1.2070000E-02   -2.8474092E-09
  1.2105000E-02    6.1882020E-11
  1.2140000E-02    1.9819743E-10
  1.2175000E-02   -2.5366174E-09
  1.2210000E-02    2.9387208E-09
  1.2245000E-02    3.6100216E-09
  1.2280000E-02   -2.1612074E-09
  1.2315000E-02   -1.9469077E-09
  1.2350000E-02    2.8482223E-09
  1.2385000E-02    5.9989747E-10
  1.2420000E-02   -2.6952121E-09
  1.2455000E-02   -3.9930315E-10
  1.2490000E-02    6.4797218E-10
  1.2525000E-02   -4.9831832E-09
  1.2560000E-02   -3.3502596E-09
  1.2595000E-02    4.9657021E-09
  1.2630000E-02    3.9061696E-09
  1.2665000E-02   -1.4352405E-09
  1.2700000E-02    5.2406540E-10
  1.2735000E-02    8.8446650E-10
  1.2770000E-02   -2.7234612E-09
  1.2805000E-02   -6.1308880E-10
  1.2840000E-02    1.5346823E-09
  1.2875000E-02   -7.4914597E-10
  1.2910000E-02   -4.4407582E-11
  1.2945000E-02    1.1405241E-09
  1.2980000E-02   -8.9921287E-10
  1.3015000E-02   -3.4899733E-10
  1.3050000E-02    4.0852088E-10
  1.3085000E-02   -9.4283981E-10
  1.3120000E-02    3.0583772E-10
  1.3155000E-02    2.3560891E-09
  1.3190000E-02    1.2345567E-09
  1.3225000E-02   -4.1505271E-10
  1.3260000E-02   -9.6070307E-10
  1.3295000E-02   -3.4734243E-10
  1.3330000E-02   -8.3319307E-10
  1.3365000E-02   -2.7871494E-09
  1.3400000E-02    1.1903470E-09
  1.3435000E-02    5.5282192E-09
  1.3470000E-02    1.3201150E-10
  1.3505000E-02   -2.8333458E-09
  1.3540000E-02    1.4705073E-09
  1.3575000E-02   -1.0229666E-09
  1.3610000E-02   -5.1287961E-09
  1.3645000E-02    9.1823965E-10
  1.3680000E-02    2.8723339E-09
  1.3715000E-02   -1.8024475E-09
  1.3750000E-02    5.5098931E-10
  1.3785000E-02    2.8544946E-09
  1.3820000E-02   -1.7086978E-09
  1.3855000E-02   -1.8517652E-09
  1.3890000E-02    1.1016849E-09
  1.3925000E-02   -1.2673087E-09
  1.3960000E-02   -8.4589008E-10
  1.3995000E-02    6.3831762E-10
  1.4030000E-02   -1.3634623E-09
  1.4065000E-02    1.5727349E-10
  1.4100000E-02    1.7343140E-09
  1.4135000E-02   -6.8567740E-10
  1.4170000E-02   -1.3306017E-09
  1.4205000E-02   -2.6975344E-09
  1.4240000E-02   -4.3906865E-09
  1.4275000E-02    4.6639265E-10
  1.4310000E-02    3.6789916E-09
  1.4345000E-02   -1.1917146E-09
  1.4380000E-02   -2.7584757E-09
  1.4415000E-02    1.2802861E-09
  1.4450000E-02   -4.0339573E-10
  1.4485000E-02   -3.0592409E-09
  1.4520000E-02    3.0899321E-09
  1.4555000E-02    5.6010538E-09
  1.4590000E-02   -1.1304115E-09
  1.4625000E-02   -3.3926391E-09
  1.4660000E-02   -4.4051571E-10
  1.4695000E-02   -1.7761886E-10
  1.4730000E-02   -1.7639809E-09
  1.4765000E-02    5.0590898E-10
  1.4800000E-02    2.2146955E-09
  1.4835000E-02   -1.2920461E-09
  1.4870000E-02   -3.1203409E-09
  1.4905000E-02    7.7724976E-10
  1.4940000E-02    3.5413708E-09
  1.4975000E-02   -1.1596025E-09
  1.5010000E-02   -4.9126441E-09
  1.5045000E-02    7.1915374E-10
  1.5080000E-02    4.9367275E-09
  1.5115000E-02   -1.4473452E-10
  1.5150000E-02   -2.8627130E-09
  1.5185000E-02    2.4105442E-09
  1.5220000E-02    3.5859413E-09
  1.5255000E-02   -1.3407933E-09
  1.5290000E-02   -1.1836110E-10
  1.5325000E-02    4.2670645E-09
  1.5360000E-02   -4.3949819E-10
  1.5395000E-02   -4.5801194E-09
  1.5430000E-02    1.2987597E-09
  1.5465000E-02    3.4000716E-09
  1.5500000E-02   -3.6814851E-09
  1.5535000E-02   -3.1612273E-09
  1.5570000E-02    6.7064159E-09
  1.5605000E-02    5.6791829E-09
  1.5640000E-02   -4.9742557E-09
  1.5675001E-02   -2.9534066E-09
  1.5710000E-02    5.7593708E-09
  1.5745001E-02    6.7648204E-10
  1.5780000E-02   -6.0697478E-09
  1.5814999E-02    2.8740119E-10
  1.5850000E-02    3.3647520E-09
  1.5884999E-02   -3.6522672E-09
  1.5920000E-02   -2.7490570E-09
  1.5954999E-02    6.5069559E-09
  1.5990000E-02    6.6610317E-09
  1.6024999E-02   -2.6494680E-09
  1.6060000E-02   -7.1208364E-09
  1.6094999E-02   -1.3062249E-09
  1.6130000E-02    4.0688204E-09
  1.6164999E-02    5.9363692E-10
  1.6200000E-02   -2.3592414E-10
  1.6235000E-02    4.5088164E-09
  1.6270000E-02    1.0061066E-09
  1.6305000E-02   -6.2178969E-09
  1.6340001E-02   -2.9241711E-09
  1.6375000E-02    1.6818185E-09
  1.6410001E-02   -7.9903351E-10
  1.6445000E-02   -3.4392136E-10
  1.6480001E-02    3.7234613E-09
  1.6515000E-02    3.4219281E-09
  1.6550001E-02   -1.1057970E-09
  1.6585000E-02   -3.8944328E-09
  1.6620001E-02    5.5796645E-10
  1.6655000E-02    6.5684702E-09
  1.6690001E-02    1.2711975E-09
  1.6725000E-02   -5.1495546E-09
  1.6759999E-02    2.3136686E-09
  1.6795000E-02    5.6388556E-09
  1.6829999E-02   -5.3161884E-09
  1.6865000E-02   -5.0645452E-09
  1.6899999E-02    7.6828028E-09
  1.6935000E-02    5.0609779E-09
  1.6969999E-02   -5.9979310E-09
  1.7005000E-02   -2.1824098E-09
  1.7039999E-02    4.4081894E-09
  1.7075000E-02   -1.5749041E-09
  1.7109999E-02   -5.4140279E-09
  1.7145000E-02    2.8528988E-09
  1.7180000E-02    7.0001294E-09
  1.7215000E-02   -2.1960491E-09
  1.7250000E-02   -7.0339699E-09
  1.7285001E-02    2.6297078E-09
  1.7320000E-02    6.0545751E-09
  1.7355001E-02   -4.0317549E-09
  1.7390000E-02   -2.7750764E-09
  1.7425001E-02    8.1076719E-09
  1.7460000E-02    1.7063817E-09
  1.7495001E-02   -7.9123534E-09
  1.7530000E-02    2.8732656E-09
  1.7565001E-02    9.5478754E-09
  1.7600000E-02   -3.2236949E-09
  1.7635001E-02   -7.3947426E-09
  1.7670000E-02    2.6236453E-09
  1.7704999E-02    3.3025436E-09
  1.7740000E-02   -3.1998224E-09
  1.7774999E-02   -1.3100272E-09
  1.7810000E-02    2.5167941E-09
  1.7844999E-02   -2.4527700E-09
  1.7880000E-02   -6.4441927E-09
  1.7914999E-02    1.8861770E-09
  1.7950000E-02    7.4417912E-09
  1.7984999E-02   -3.1959819E-09
  1.8020000E-02   -6.4629631E-09
  1.8054999E-02    7.4994579E-09
  1.8090000E-02    6.1581198E-09
  1.8124999E-02   -9.5903694E-09
  1.8160000E-02   -3.9080286E-09
  1.8195000E-02    9.2704751E-09
  1.8230001E-02    2.0983090E-10
  1.8265000E-02   -8.2662641E-09
  1.8300001E-02    1.0820088E-09
  1.8335000E-02    3.8770689E-09
  1.8370001E-02   -4.6444124E-09
  1.8405000E-02   -2.5444975E-09
  1.8440001E-02    6.6237029E-09
  1.8475000E-02    2.6770113E-09
  1.8510001E-02   -6.5337726E-09
  1.8545000E-02   -1.4551149E-09
  1.8580001E-02    5.1796927E-09
  1.8615000E-02   -3.6221741E-09
  1.8650001E-02   -7.0582242E-09
  1.8685000E-02    4.8667972E-09
  1.8719999E-02    4.6238990E-09
  1.8755000E-02   -6.1098997E-09
  1.8789999E-02   -1.6084899E-09
  1.8825000E-02    4.9854467E-09
  1.8859999E-02   -1.0608545E-09
  1.8895000E-02   -1.6299800E-09
  1.8929999E-02    3.8353964E-09
  1.8965000E-02    1.0270408E-09
  1.8999999E-02   -2.6006775E-09
  1.9035000E-02   -1.5828993E-09
  1.9069999E-02   -2.4456577E-09
  1.9105000E-02   -3.2136926E-09
  1.9140000E-02   -1.6675815E-09
  1.9175000E-02    1.4735427E-10
  1.9210000E-02    2.9886473E-09
  1.9245001E-02    2.7735916E-09
  1.9280000E-02   -1.3088530E-09
  1.9315001E-02   -1.2693426E-09
  1.9350000E-02    2.0502966E-09
  1.9385001E-02    2.2521920E-09
  1.9420000E-02    1.0175439E-09
  1.9455001E-02   -2.7444436E-10
  1.9490000E-02   -1.2173094E-09
  1.9525001E-02   -5.7581778E-10
  1.9560000E-02   -1.1883554E-09
  1.9595001E-02   -3.3754438E-10
  1.9630000E-02    4.6467301E-09
  1.9664999E-02    3.4844632E-09
  1.9700000E-02   -3.6691641E-09
  1.9734999E-02   -2.7866054E-09
  1.9770000E-02    2.4042837E-09
  1.9804999E-02    1.9774409E-09
  1.9840000E-02    1.7968311E-09
  1.9874999E-02    2.0392568E-09
  1.9910000E-02   -2.8540192E-09
  1.9944999E-02   -4.0921089E-09
  1.9980000E-02    1.2236779E-09
  2.0014999E-02    8.9676944E-10
  2.0050000E-02   -2.8638516E-09
  2.0085000E-02    5.7596211E-10
  2.0120000E-02    3.4793677E-09
  2.0155000E-02   -6.1071154E-10
  2.0190001E-02   -9.3223240E-10
  2.0225000E-02    3.1378866E-09
  2.0260001E-02    6.2451093E-11
  2.0295000E-02   -3.8877981E-09
  2.0330001E-02    1.2305243E-09
  2.0365000E-02    2.8525331E-09
  2.0400001E-02   -3.9105599E-09
  2.0435000E-02   -2.2581843E-09
  2.0470001E-02    4.6127266E-09
  2.0505000E-02   -3.4278122E-10
  2.0540001E-02   -5.4077707E-09
  2.0575000E-02    1.5055117E-09
  2.0609999E-02    3.6872292E-09
  2.0645000E-02   -3.3709093E-09
  2.0679999E-02   -3.0249907E-09
  2.0715000E-02    2.7382501E-09
  2.0749999E-02    8.8608881E-10
  2.0785000E-02   -2.9673963E-09
  2.0819999E-02    2.2048204E-10
  2.0855000E-02    3.6844039E-09
  2.0889999E-02    2.8351047E-10
  2.0925000E-02   -2.6140252E-09
  2.0959999E-02    8.6272001E-10
  2.0995000E-02    1.1293545E-09
  2.1029999E-02   -4.8371303E-09
  2.1065000E-02   -3.3683614E-09
  2.1100000E-02    4.3864246E-09
  2.1135001E-02    2.4770981E-09
  2.1170000E-02   -2.3626217E-09
  2.1205001E-02    1.7021919E-09
  2.1240000E-02    2.9031741E-09
  2.1275001E-02   -1.7621059E-09
  2.1310000E-02    5.6363642E-10
  2.1345001E-02    3.0633611E-09
  2.1380000E-02   -1.5788456E-09
  2.1415001E-02   -2.3470664E-10
  2.1450000E-02    3.6698486E-09
  2.1485001E-02   -3.0234666E-09
  2.1520000E-02   -6.4028680E-09
  2.1555001E-02    1.0744167E-09
  2.1590000E-02    1.9077555E-09
  2.1624999E-02   -1.8098604E-09
  2.1660000E-02    2.8032683E-09
  2.1694999E-02    4.8196953E-09
  2.1730000E-02   -5.1716920E-10
  2.1764999E-02   -2.7980282E-10
  2.1800000E-02    1.8363334E-09
  2.1834999E-02   -1.6902109E-09
  2.1870000E-02   -1.0270550E-09
  2.1904999E-02    2.9428062E-09
  2.1940000E-02    1.5192778E-10
  2.1974999E-02   -2.0515276E-09
  2.2010000E-02    2.6126257E-10
  2.2045000E-02   -1.5680418E-09
  2.2080000E-02   -1.6192213E-09
  2.2115000E-02    4.4889599E-09
  2.2150001E-02    4.3841886E-09
  2.2185000E-02   -4.1744382E-11
  2.2220001E-02    1.1574046E-09
  2.2255000E-02   -1.3655012E-09
  2.2290001E-02   -7.2907924E-09
  2.2325000E-02   -1.6781674E-09
  2.2360001E-02    4.8360902E-09
  2.2395000E-02   -8.5021973E-10
  2.2430001E-02   -2.2305746E-09
  2.2465000E-02    3.5237713E-09
  2.2500001E-02   -5.1956206E-10
  2.2535000E-02   -4.6856861E-09
  2.2569999E-02    2.9507750E-09
  2.2605000E-02    4.6600195E-09
  2.2639999E-02   -3.4014898E-09
  2.2675000E-02   -2.1805973E-09
  2.2709999E-02    4.1374668E-09
  2.2745000E-02    2.7391664E-10
  2.2779999E-02   -4.1739101E-09
  2.2815000E-02   -6.6227634E-11
  2.2849999E-02    7.1197981E-10
  2.2885000E-02   -3.9458850E-09
  2.2919999E-02   -2.6763549E-09
  2.2955000E-02    2.2078124E-09
  2.2990000E-02    1.8883139E-09
  2.3025000E-02    5.8241564E-11
  2.3060000E-02    3.1492958E-11
  2.3095001E-02   -2.1295548E-09
  2.3130000E-02   -2.9298197E-09
  2.3165001E-02   -6.1302868E-10
  2.3200000E-02   -2.4400781E-09
  2.3235001E-02   -4.3434918E-09
  2.3270000E-02    1.1417645E-09
  2.3305001E-02    3.5314787E-09
  2.3340000E-02   -1.6861288E-09
  2.3375001E-02   -9.2062247E-10
  2.3410000E-02    3.7113357E-09
  2.3445001E-02   -9.9734143E-10
  2.3480000E-02   -6.5063412E-09
  2.3514999E-02   -3.0670071E-09
  2.3550000E-02    4.1723203E-10
  2.3584999E-02    1.0811575E-09
  2.3620000E-02    3.0149014E-09
  2.3654999E-02    1.4024538E-09
  2.3690000E-02   -2.5217672E-09
  2.3724999E-02   -1.4728087E-09
  2.3760000E-02   -7.5335405E-11
  2.3794999E-02   -1.1276619E-09
  2.3830000E-02    8.8476498E-10
  2.3864999E-02    1.2491067E-09
  2.3900000E-02   -3.1283673E-09
  2.3934999E-02   -1.2355060E-09
  2.3970000E-02    4.3832773E-09
  2.4005000E-02   -2.3543420E-10
  2.4040001E-02   -5.6071587E-09
  2.4075000E-02    1.1894317E-09
  2.4110001E-02    5.2535309E-09
  2.4145000E-02   -2.3639117E-09
  2.4180001E-02   -3.8842316E-09
  2.4215000E-02    4.0214490E-09
  2.4250001E-02    3.9212038E-09
  2.4285000E-02   -2.7240652E-09
  2.4320001E-02   -2.0289217E-09
  2.4355000E-02    1.5885734E-09
  2.4390001E-02   -2.4865973E-10
  2.4425000E-02   -1.3107878E-09
  2.4460001E-02    1.8491713E-09
  2.4495000E-02    1.1652167E-09
  2.4529999E-02   -3.1946885E-09
  2.4565000E-02   -4.8641757E-10
  2.4599999E-02    5.6747083E-09
  2.4635000E-02    2.6719837E-09
  2.4669999E-02   -3.0496101E-09
  2.4705000E-02    4.5138196E-10
  2.4739999E-02    2.7883831E-09
  2.4775000E-02   -3.7423509E-09
  2.4809999E-02   -5.4116436E-09
  2.4845000E-02    3.0008318E-10
  2.4879999E-02    1.8897433E-09
  2.4915000E-02    1.9870996E-09
  2.4950000E-02    3.7039396E-09
  2.4985000E-02   -1.3796946E-10
  2.5020000E-02   -4.3031094E-09
  2.5055001E-02   -1.6194754E-09
  2.5090000E-02   -2.8473368E-10
  2.5125001E-02   -2.0942537E-09
  2.5160000E-02   -4.2697820E-10
  2.5195001E-02    2.7251041E-09
  2.5230000E-02    3.0056098E-09
  2.5265001E-02   -4.8816134E-10
  2.5300000E-02   -4.8584039E-09
  2.5335001E-02   -2.5294191E-09
  2.5370000E-02    2.9347094E-09
  2.5405001E-02    1.2768789E-09
  2.5440000E-02   -1.1709154E-09
  2.5474999E-02    3.2403052E-10
  2.5510000E-02   -2.0162971E-09
  2.5544999E-02   -1.6171823E-09
  2.5580000E-02    5.9625749E-09
  2.5614999E-02    4.5202215E-09
  2.5650000E-02   -2.6740992E-09
  2.5684999E-02    2.7318679E-11
  2.5720000E-02    1.3975192E-09
  2.5754999E-02   -3.7009236E-09
  2.5790000E-02   -4.4106091E-10
  2.5824999E-02    4.4212567E-09
  2.5860000E-02   -8.3292551E-10
  2.5895000E-02   -3.9677435E-09
  2.5930000E-02   -8.5280982E-10
  2.5965000E-02   -4.3787785E-10
  2.6000001E-02    2.4477873E-10
  2.6035000E-02    3.0506200E-09
  2.6070001E-02    2.3891131E-09
  2.6105000E-02   -9.7446246E-11
  2.6140001E-02   -1.2161426E-09
  2.6175000E-02   -9.1255548E-10
  2.6210001E-02    7.1777878E-10
  2.6245000E-02    7.2353601E-10
  2.6280001E-02    1.6931305E-10
  2.6315000E-02    2.2708471E-09
  2.6350001E-02    6.6963229E-10
  2.6385000E-02   -4.6223221E-09
  2.6419999E-02   -3.7468952E-09
  2.6455000E-02   -8.1257395E-10
  2.6489999E-02   -1.2279607E-09
  2.6525000E-02    2.3645867E-09
  2.6559999E-02    5.2378026E-09
  2.6595000E-02   -4.9977572E-10
  2.6629999E-02   -2.4796647E-09
  2.6665000E-02    1.6956903E-09
  2.6699999E-02   -1.1447541E-09
  2.6735000E-02   -3.9099262E-09
  2.6769999E-02    3.1368177E-09
  2.6805000E-02    5.6783156E-09
  2.6839999E-02   -1.3614502E-09
  2.6875000E-02   -2.4735232E-09
  2.6910000E-02    3.3124123E-09
  2.6945001E-02    2.2071698E-09
  2.6980000E-02   -4.9397757E-09