 -4.8000002E-03    1.0000000E-24
 -4.7650002E-03    1.0000002E-24
 -4.7300002E-03    1.0000001E-24
 -4.6950001E-03    1.0000000E-24
 -4.6600001E-03    1.0000003E-24
 -4.6250001E-03    1.0000002E-24
 -4.5900000E-03    9.9999992E-25
 -4.5550000E-03    1.0000002E-24
 -4.5200000E-03    1.0000000E-24
 -4.4849999E-03    9.9999992E-25
 -4.4499999E-03    1.0000002E-24
 -4.4149999E-03    1.0000002E-24
 -4.3799998E-03    9.9999963E-25
 -4.3449998E-03    9.9999972E-25
 -4.3100002E-03    1.0000006E-24
 -4.2750002E-03    1.0000002E-24
 -4.2400002E-03    9.9999992E-25
 -4.2050001E-03    1.0000005E-24
 -4.1700001E-03    1.0000006E-24
 -4.1350001E-03    9.9999953E-25
 -4.1000000E-03    9.9999943E-25
 -4.0650000E-03    1.0000004E-24
 -4.0300000E-03    1.0000002E-24
 -3.9949999E-03    9.9999953E-25
 -3.9599999E-03    1.0000003E-24
 -3.9249999E-03    1.0000007E-24
 -3.8900001E-03    9.9999963E-25
 -3.8550000E-03    9.9999963E-25
 -3.8200000E-03    1.0000005E-24
 -3.7849999E-03    1.0000002E-24
 -3.7499999E-03    9.9999972E-25
 -3.7150001E-03    1.0000005E-24
 -3.6800001E-03    1.0000007E-24
 -3.6450000E-03    9.9999963E-25
 -3.6100000E-03    9.9999953E-25
 -3.5750000E-03    1.0000000E-24
 -3.5399999E-03    9.9999992E-25
 -3.5049999E-03    9.9999992E-25
 -3.4700001E-03    1.0000006E-24
 -3.4350001E-03    1.0000005E-24
 -3.4000000E-03    1.0000001E-24
 -3.3650000E-03    9.9999992E-25
 -3.3300000E-03    1.0000000E-24
 -3.2949999E-03    9.9999982E-25
 -3.2599999E-03    9.9999982E-25
 -3.2250001E-03    1.0000002E-24
 -3.1900001E-03    1.0000001E-24
 -3.1550000E-03    1.0000001E-24
 -3.1200000E-03    1.0000004E-24
 -3.0850000E-03    1.0000004E-24
 -3.0499999E-03    9.9999972E-25
 -3.0149999E-03    9.9999992E-25
 -2.9800001E-03    1.0000007E-24
 -2.9450001E-03    1.0000000E-24
 -2.9100000E-03    9.9999972E-25
 -2.8750000E-03    1.0000003E-24
 -2.8400000E-03    1.0000002E-24
 -2.8049999E-03    9.9999982E-25
 -2.7699999E-03    1.0000002E-24
 -2.7350001E-03    1.0000007E-24
 -2.7000001E-03    1.0000003E-24
 -2.6650000E-03    9.9999943E-25
 -2.6300000E-03    9.9999963E-25
 -2.5950000E-03    1.0000002E-24
 -2.5599999E-03    1.0000003E-24
 -2.5249999E-03    1.0000001E-24
 -2.4900001E-03    1.0000002E-24
 -2.4550001E-03    1.0000004E-24
 -2.4200000E-03    1.0000005E-24
 -2.3850000E-03    1.0000002E-24
 -2.3500000E-03    9.9999992E-25
 -2.3149999E-03    9.9999943E-25
 -2.2799999E-03    9.9999874E-25
 -2.2450001E-03    9.9999953E-25
 -2.2100001E-03    1.0000008E-24
 -2.1750000E-03    1.0000005E-24
 -2.1400000E-03    9.9999972E-25
 -2.1050000E-03    1.0000005E-24
 -2.0699999E-03    1.0000008E-24
 -2.0349999E-03    1.0000000E-24
 -2.0000001E-03    9.9999972E-25
 -1.9650001E-03    1.0000003E-24
 -1.9300000E-03    1.0000006E-24
 -1.8950000E-03    1.0000005E-24
 -1.8600000E-03    9.9999982E-25
 -1.8250000E-03    9.9999982E-25
 -1.7900000E-03    1.0000006E-24
 -1.7550000E-03    1.0000001E-24
 -1.7199999E-03    9.9999933E-25
 -1.6850000E-03    1.0000006E-24
 -1.6500000E-03    1.0000013E-24
 -1.6150000E-03    9.9999903E-25
 -1.5800000E-03    9.9999785E-25
 -1.5450000E-03    1.0000001E-24
 -1.5100000E-03    1.0000010E-24
 -1.4750001E-03    9.9999972E-25
 -1.4400000E-03    1.0000000E-24
 -1.4050000E-03    1.0000009E-24
 -1.3700000E-03    1.0000003E-24
 -1.3350000E-03    9.9999982E-25
 -1.3000000E-03    9.9999992E-25
 -1.2650000E-03    1.0000001E-24
 -1.2300001E-03    9.9999992E-25
 -1.1950000E-03    1.0000000E-24
 -1.1600000E-03    9.9999982E-25
 -1.1250000E-03    9.9999923E-25
 -1.0900000E-03    1.0000002E-24
 -1.0550000E-03    1.0000013E-24
 -1.0200000E-03    9.9999992E-25
 -9.8500005E-04    9.9999913E-25
 -9.5000002E-04    1.0000005E-24
 -9.1499998E-04    1.0000002E-24
 -8.8000001E-04    9.9999893E-25
 -8.4499997E-04    9.9999953E-25
 -8.1000000E-04    1.0000005E-24
 -7.7500002E-04    1.0000002E-24
 -7.3999999E-04    1.0000003E-24
 -7.0500001E-04    1.0000004E-24
 -6.6999998E-04    1.0000000E-24
 -6.3500000E-04    1.0000006E-24
 -6.0000003E-04    1.0000004E-24
 -5.6499999E-04    9.9999923E-25
 -5.3000002E-04    1.0000005E-24
 -4.9499999E-04    1.0000015E-24
 -4.6000001E-04    9.9999992E-25
 -4.2500001E-04    9.9999943E-25
 -3.9000000E-04    1.0000011E-24
 -3.5500000E-04    1.0000006E-24
 -3.1999999E-04    9.9999854E-25
 -2.8499999E-04    9.9999884E-25
 -2.5000001E-04    1.0000008E-24
 -2.1499999E-04    1.0000001E-24
 -1.8000000E-04    9.9999884E-25
 -1.4500000E-04    9.9999992E-25
 -1.1000000E-04    1.0000006E-24
 -7.5000004E-05    9.9999972E-25
 -3.9999999E-05    9.9999992E-25
 -4.9999999E-06    1.0000013E-24
  2.9999999E-05    1.0000009E-24
  6.5000000E-05    9.9999982E-25
  9.9999997E-05    9.9999982E-25
  1.3499999E-04    9.9999963E-25
  1.7000000E-04    9.9999933E-25
  2.0500000E-04    1.0000001E-24
  2.3999999E-04    1.0000004E-24
  2.7500000E-04    1.0000000E-24
  3.1000000E-04    1.0000009E-24
  3.4500001E-04    1.0000000E-24
  3.8000001E-04    9.9999854E-25
  4.1499999E-04    9.9999982E-25
  4.4999999E-04    1.0000008E-24
  4.8500000E-04    9.9999972E-25
  5.2000000E-04    9.9999982E-25
  5.5499998E-04    1.0000012E-24
  5.9000001E-04    1.0000013E-24
  6.2499999E-04    1.0000005E-24
  6.6000002E-04    9.9999972E-25
  6.9500000E-04    9.9999963E-25
  7.3000003E-04    9.9999992E-25
  7.6500000E-04    9.9999982E-25
  7.9999998E-04    1.0000001E-24
  8.3500001E-04    1.0000006E-24
  8.6999999E-04    1.0000000E-24
  9.0500002E-04    1.0000002E-24
  9.4000000E-04    1.0000011E-24
  9.7499997E-04    9.9999992E-25
  1.0100000E-03    9.9999943E-25
  1.0450000E-03    1.0000014E-24
  1.0800000E-03    1.0000005E-24
  1.1150000E-03    9.9999785E-25
  1.1500000E-03    9.9999943E-25
  1.1849999E-03    1.0000012E-24
  1.2200000E-03    9.9999923E-25
  1.2550000E-03    9.9999943E-25
  1.2900000E-03    1.0000011E-24
  1.3250000E-03    1.0000006E-24
  1.3600000E-03    9.9999982E-25
  1.3950000E-03    9.9999992E-25
  1.4299999E-03    1.0000000E-24
  1.4650000E-03    1.0000010E-24
  1.5000000E-03    1.0000003E-24
  1.5350000E-03    9.9999913E-25
  1.5700000E-03    1.0000000E-24
  1.6050000E-03    1.0000006E-24
  1.6400000E-03    9.9999963E-25
  1.6749999E-03    1.0000000E-24
  1.7100000E-03    1.0000004E-24
  1.7450000E-03    9.9999992E-25
  1.7800000E-03    9.9999933E-25
  1.8150000E-03    9.9999963E-25
  1.8500000E-03    1.0000011E-24
  1.8850000E-03    1.0000016E-24
  1.9200000E-03    9.9999982E-25
  1.9550000E-03    9.9999953E-25
  1.9900000E-03    1.0000012E-24
  2.0250001E-03    9.9999953E-25
  2.0600001E-03    9.9999884E-25
  2.0949999E-03    1.0000015E-24
  2.1299999E-03    9.9999992E-25
  2.1650000E-03    9.9999775E-25
  2.2000000E-03    1.0000018E-24
  2.2350000E-03    1.0000029E-24
  2.2700001E-03    9.9999824E-25
  2.3050001E-03    9.9999874E-25
  2.3399999E-03    1.0000018E-24
  2.3749999E-03    9.9999884E-25
  2.4100000E-03    9.9999755E-25
  2.4450000E-03    1.0000012E-24
  2.4800000E-03    1.0000017E-24
  2.5150001E-03    9.9999982E-25
  2.5500001E-03    1.0000004E-24
  2.5849999E-03    1.0000009E-24
  2.6199999E-03    9.9999953E-25
  2.6550000E-03    9.9999874E-25
  2.6900000E-03    9.9999943E-25
  2.7250000E-03    1.0000004E-24
  2.7600001E-03    1.0000003E-24
  2.7950001E-03    1.0000003E-24
  2.8299999E-03    1.0000010E-24
  2.8649999E-03    1.0000011E-24
  2.9000000E-03    1.0000001E-24
  2.9350000E-03    1.0000005E-24
  2.9700000E-03    1.0000003E-24
  3.0050001E-03    9.9999884E-25
  3.0400001E-03    9.9999933E-25
  3.0749999E-03    1.0000009E-24
  3.1099999E-03    9.9999972E-25
  3.1450000E-03    9.9999923E-25
  3.1800000E-03    1.0000007E-24
  3.2150000E-03    9.9999982E-25
  3.2500001E-03    9.9999824E-25
  3.2850001E-03    9.9999963E-25
  3.3199999E-03    1.0000014E-24
  3.3549999E-03    1.0000010E-24
  3.3900000E-03    1.0000007E-24
  3.4250000E-03    1.0000007E-24
  3.4600000E-03    9.9999992E-25
  3.4950001E-03    9.9999913E-25
  3.5300001E-03    9.9999963E-25
  3.5649999E-03    1.0000001E-24
  3.5999999E-03    1.0000002E-24
  3.6350000E-03    1.0000007E-24
  3.6700000E-03    1.0000003E-24
  3.7050000E-03    9.9999953E-25
  3.7400001E-03    1.0000005E-24
  3.7750001E-03    1.0000005E-24
  3.8099999E-03    9.9999834E-25
  3.8449999E-03    9.9999923E-25
  3.8800000E-03    1.0000026E-24
  3.9149998E-03    1.0000004E-24
  3.9499998E-03    9.9999755E-25
  3.9849998E-03    1.0000005E-24
  4.0199999E-03    1.0000026E-24
  4.0549999E-03    9.9999923E-25
  4.0899999E-03    9.9999903E-25
  4.1250000E-03    1.0000019E-24
  4.1600000E-03    1.0000011E-24
  4.1950000E-03    9.9999874E-25
  4.2300001E-03    9.9999864E-25
  4.2650001E-03    1.0000001E-24
  4.3000001E-03    1.0000011E-24
  4.3350002E-03    9.9999903E-25
  4.3700002E-03    9.9999805E-25
  4.4049998E-03    1.0000009E-24
  4.4399998E-03    1.0000021E-24
  4.4749998E-03    1.0000000E-24
  4.5099999E-03    1.0000002E-24
  4.5449999E-03    1.0000003E-24
  4.5799999E-03    9.9999933E-25
  4.6150000E-03    1.0000001E-24
  4.6500000E-03    1.0000000E-24
  4.6850001E-03    9.9999933E-25
  4.7200001E-03    1.0000017E-24
  4.7550001E-03    1.0000017E-24
  4.7900002E-03    9.9999824E-25
  4.8250002E-03    9.9999884E-25
  4.8600002E-03    1.0000003E-24
  4.8949998E-03    9.9999903E-25
  4.9299998E-03    1.0000003E-24
  4.9649999E-03    1.0000020E-24
  4.9999999E-03    1.0000001E-24
  5.0349999E-03    9.9999963E-25
  5.0700000E-03    1.0000010E-24
  5.1050000E-03    1.0000007E-24
  5.1400000E-03    9.9999992E-25
  5.1750001E-03    9.9999972E-25
  5.2100001E-03    9.9999913E-25
  5.2450001E-03    9.9999923E-25
  5.2800002E-03    9.9999903E-25
  5.3150002E-03    9.9999903E-25
  5.3500002E-03    1.0000013E-24
  5.3849998E-03    1.0000014E-24
  5.4199998E-03    9.9999884E-25
  5.4549999E-03    9.9999943E-25
  5.4899999E-03    1.0000008E-24
  5.5249999E-03    1.0000003E-24
  5.5600000E-03    1.0000002E-24
  5.5950000E-03    1.0000007E-24
  5.6300000E-03    1.0000009E-24
  5.6650001E-03    1.0000010E-24
  5.7000001E-03    9.9999923E-25
  5.7350001E-03    9.9999765E-25
  5.7700002E-03    1.0000001E-24
  5.8050002E-03    1.0000009E-24
  5.8400002E-03    9.9999815E-25
  5.8749998E-03    9.9999884E-25
  5.9099998E-03    1.0000012E-24
  5.9449999E-03    9.9999982E-25
  5.9799999E-03    9.9999854E-25
  6.0149999E-03    1.0000006E-24
  6.0500000E-03    1.0000021E-24
  6.0850000E-03    1.0000008E-24
  6.1200000E-03    9.9999903E-25
  6.1550001E-03    9.9999903E-25
  6.1900001E-03    1.0000010E-24
  6.2250001E-03    1.0000008E-24
  6.2600002E-03    9.9999884E-25
  6.2950002E-03    9.9999972E-25
  6.3299998E-03    1.0000017E-24
  6.3649998E-03    1.0000014E-24
  6.3999998E-03    9.9999992E-25
  6.4349999E-03    9.9999943E-25
  6.4699999E-03    1.0000004E-24
  6.5049999E-03    1.0000006E-24
  6.5400000E-03    9.9999805E-25
  6.5750000E-03    9.9999795E-25
  6.6100000E-03    1.0000016E-24
  6.6450001E-03    1.0000014E-24
  6.6800001E-03    9.9999874E-25
  6.7150001E-03    1.0000004E-24
  6.7500002E-03    1.0000015E-24
  6.7850002E-03    9.9999874E-25
  6.8199998E-03    9.9999874E-25
  6.8549998E-03    1.0000016E-24
  6.8899998E-03    1.0000013E-24
  6.9249999E-03    9.9999963E-25
  6.9599999E-03    9.9999933E-25
  6.9949999E-03    1.0000002E-24
  7.0300000E-03    1.0000017E-24
  7.0650000E-03    1.0000012E-24
  7.1000000E-03    9.9999815E-25
  7.1350001E-03    9.9999834E-25
  7.1700001E-03    1.0000028E-24
  7.2050001E-03    1.0000041E-24
  7.2400002E-03    9.9999844E-25
  7.2750002E-03    9.9999253E-25
  7.3099998E-03    9.9999864E-25
  7.3449998E-03    1.0000108E-24
  7.3799998E-03    1.0000061E-24
  7.4149999E-03    9.9998355E-25
  7.4499999E-03    9.9998286E-25
  7.4850000E-03    1.0000228E-24
  7.5200000E-03    1.0000400E-24
  7.5550000E-03    9.9997458E-25
  7.5900001E-03    9.9992074E-25
  7.6250001E-03    1.0000214E-24
  7.6600001E-03    1.0001463E-24
  7.6950002E-03    1.0000008E-24
  7.7300002E-03    9.9974729E-25
  7.7650002E-03    9.9993494E-25
  7.7999998E-03    1.0004055E-24
  7.8349998E-03    1.0002044E-24
  7.8699999E-03    9.9938796E-25
  7.9049999E-03    9.9952197E-25
  7.9399999E-03    1.0008654E-24
  7.9750000E-03    1.0009812E-24
  8.0100000E-03    9.9888516E-25
  8.0450000E-03    9.9816444E-25
  8.0800001E-03    1.0012495E-24
  8.1150001E-03    1.0032060E-24
  8.1500001E-03    9.9896740E-25
  8.1850002E-03    9.9472836E-25
  8.2200002E-03    1.0000337E-24
  8.2550002E-03    1.0081789E-24
  8.2900003E-03    1.0024765E-24
  8.3250003E-03    9.8807856E-25
  8.3600003E-03    9.9235911E-25
  8.3950004E-03    1.0161242E-24
  8.4300004E-03    1.0171251E-24
  8.4650004E-03    9.8032948E-25
  8.5000005E-03    9.6684449E-25
  8.5349996E-03    1.0201299E-24
  8.5699996E-03    1.0583974E-24
  8.6049996E-03    9.8708361E-25
  8.6399997E-03    9.0452251E-25
  8.6749997E-03    9.9016845E-25
  8.7099997E-03    1.1458648E-24
  8.7449998E-03    1.0605505E-24
  8.7799998E-03    7.9226321E-25
  8.8149998E-03    8.4252494E-25
  8.8499999E-03    1.2723651E-24
  8.8849999E-03    1.3252501E-24
  8.9199999E-03    6.8158169E-25
  8.9550000E-03    4.0616224E-25
  8.9900000E-03    1.3038618E-24
  9.0250000E-03    1.9940802E-24
  9.0600001E-03    8.4465437E-25
  9.0950001E-03   -5.4733240E-25
  9.1300001E-03    7.5609202E-25
  9.1650002E-03    3.2458329E-24
  9.2000002E-03    2.0652246E-24
  9.2350002E-03   -2.0196632E-24
  9.2700003E-03   -1.5392409E-24
  9.3050003E-03    4.6863623E-24
  9.3400003E-03    5.9450794E-24
  9.3750004E-03   -2.8805857E-24
  9.4100004E-03   -7.5695322E-24
  9.4450004E-03    3.9655793E-24
  9.4799995E-03    1.4615777E-23
  9.5149996E-03    1.0637313E-24
  9.5499996E-03   -1.9035659E-23
  9.5849996E-03   -5.6611057E-24
  9.6199997E-03    2.8256821E-23
  9.6549997E-03    1.9748486E-23
  9.6899997E-03   -3.2780743E-23
  9.7249998E-03   -3.7597694E-23
  9.7599998E-03    3.7645111E-23
  9.7949998E-03    6.9466315E-23
  9.8299999E-03   -2.9781408E-23
  9.8649999E-03   -1.0883951E-22
  9.8999999E-03    9.3695881E-24
  9.9350000E-03    1.6310929E-22
  9.9700000E-03    4.2601998E-23
  1.0005000E-02   -2.1952487E-22
  1.0040000E-02   -1.3221401E-22
  1.0075000E-02    2.7431945E-22
  1.0110000E-02    2.8338428E-22
  1.0145000E-02   -2.9708262E-22
  1.0180000E-02   -5.0278298E-22
  1.0215000E-02    2.5876430E-22
  1.0250000E-02    8.0600082E-22
  1.0285000E-02   -9.6185021E-23
  1.0320000E-02   -1.1760378E-21
  1.0355000E-02   -2.5732711E-22
  1.0390000E-02    1.5813987E-21
  1.0425000E-02    9.0070406E-22
  1.0460000E-02   -1.9258905E-21
  1.0495000E-02   -1.9218124E-21
  1.0530000E-02    2.0593501E-21
  1.0565000E-02    3.4056916E-21
  1.0600000E-02   -1.7249028E-21
  1.0635000E-02   -5.3618045E-21
  1.0670000E-02    5.7762137E-22
  1.0705000E-02    7.6944623E-21
  1.0740000E-02    1.8430826E-21
  1.0775000E-02   -1.0087378E-20
  1.0810000E-02   -6.0436384E-21
  1.0845000E-02    1.1935051E-20
  1.0880000E-02    1.2518652E-20
  1.0915000E-02   -1.2205947E-20
  1.0950000E-02   -2.1555537E-20
  1.0985000E-02    9.3935802E-21
  1.1020000E-02    3.3013386E-20
  1.1055000E-02   -1.4688867E-21
  1.1090000E-02   -4.5937921E-20
  1.1125000E-02   -1.3973263E-20
  1.1160000E-02    5.8158565E-20
  1.1195000E-02    3.9426595E-20
  1.1230000E-02   -6.5787328E-20
  1.1265000E-02   -7.6828490E-20
  1.1300000E-02    6.2849655E-20
  1.1335000E-02    1.2660817E-19
  1.1370000E-02   -4.1089166E-20
  1.1405000E-02   -1.8627247E-19
  1.1440000E-02   -9.6924371E-21
  1.1475000E-02    2.4869312E-19
  1.1510000E-02    1.0058016E-19
  1.1545000E-02   -3.0015712E-19
  1.1580000E-02   -2.4132258E-19
  1.1615000E-02    3.1868167E-19
  1.1650000E-02    4.3679024E-19
  1.1685000E-02   -2.7306770E-19
  1.1720000E-02   -6.8181210E-19
  1.1755000E-02    1.2370582E-19
  1.1790000E-02    9.5472504E-19
  1.1825000E-02    1.7394097E-19
  1.1860000E-02   -1.2100935E-18
  1.1895000E-02   -6.6182323E-19
  1.1930000E-02    1.3721138E-18
  1.1965000E-02    1.3669625E-18
  1.2000000E-02   -1.3306078E-18
  1.2035000E-02   -2.2835446E-18
  1.2070000E-02    9.4284517E-19
  1.2105000E-02    3.3502701E-18
  1.2140000E-02   -4.4590253E-20
  1.2175000E-02   -4.4249477E-18
  1.2210000E-02   -1.5254755E-18
  1.2245000E-02    5.2610052E-18
  1.2280000E-02    3.8848471E-18
  1.2315000E-02   -5.4926811E-18
  1.2350000E-02   -7.0482464E-18
  1.2385000E-02    4.6391440E-18
  1.2420000E-02    1.0853089E-17
  1.2455000E-02   -2.1384395E-18
  1.2490000E-02   -1.4876158E-17
  1.2525000E-02   -2.5754372E-18
  1.2560000E-02    1.8356445E-17
  1.2595000E-02    9.9439534E-18
  1.2630000E-02   -2.0146617E-17
  1.2665000E-02   -2.0099339E-17
  1.2700000E-02    1.8722916E-17
  1.2735000E-02    3.2632652E-17
  1.2770000E-02   -1.2288707E-17
  1.2805000E-02   -4.6337698E-17
  1.2840000E-02   -9.9250972E-19
  1.2875000E-02    5.8976264E-17
  1.2910000E-02    2.2609453E-17
  1.2945000E-02   -6.7133171E-17
  1.2980000E-02   -5.3153283E-17
  1.3015000E-02    6.6246692E-17
  1.3050000E-02    9.1633765E-17
  1.3085000E-02   -5.0919518E-17
  1.3120000E-02   -1.3473993E-16
  1.3155000E-02    1.5598375E-17
  1.3190000E-02    1.7617466E-16
  1.3225000E-02    4.4308115E-17
  1.3260000E-02   -2.0625876E-16
  1.3295000E-02   -1.3086621E-16
  1.3330000E-02    2.1205723E-16
  1.3365000E-02    2.4172097E-16
  1.3400000E-02   -1.7827410E-16
  1.3435000E-02   -3.6806774E-16
  1.3470000E-02    8.9181406E-17
  1.3505000E-02    4.9290197E-16
  1.3540000E-02    6.8287770E-17
  1.3575000E-02   -5.9005702E-16
  1.3610000E-02   -3.0034163E-16
  1.3645000E-02    6.2467542E-16
  1.3680000E-02    6.0129207E-16
  1.3715000E-02   -5.5578744E-16
  1.3750000E-02   -9.4836159E-16
  1.3785000E-02    3.4155738E-16
  1.3820000E-02    1.2973916E-15
  1.3855000E-02    5.2572953E-17
  1.3890000E-02   -1.5807416E-15
  1.3925000E-02   -6.4305518E-16
  1.3960000E-02    1.7090547E-15
  1.3995000E-02    1.4156254E-15
  1.4030000E-02   -1.5784230E-15
  1.4065000E-02   -2.3128203E-15
  1.4100000E-02    1.0840914E-15
  1.4135000E-02    3.2241248E-15
  1.4170000E-02   -1.4104389E-16
  1.4205000E-02   -3.9822458E-15
  1.4240000E-02   -1.2894662E-15
  1.4275000E-02    4.3691459E-15
  1.4310000E-02    3.1702086E-15
  1.4345000E-02   -4.1350950E-15
  1.4380000E-02   -5.3595671E-15
  1.4415000E-02    3.0332491E-15
  1.4450000E-02    7.5912067E-15
  1.4485000E-02   -8.6915501E-16
  1.4520000E-02   -9.4692490E-15
  1.4555000E-02   -2.4376679E-15
  1.4590000E-02    1.0487088E-14
  1.4625000E-02    6.7873123E-15
  1.4660000E-02   -1.0076764E-14
  1.4695000E-02   -1.1840046E-14
  1.4730000E-02    7.6913353E-15
  1.4765000E-02    1.6978099E-14
  1.4800000E-02   -2.9188145E-15
  1.4835000E-02   -2.1305982E-14
  1.4870000E-02   -4.3827081E-15
  1.4905000E-02    2.3705195E-14
  1.4940000E-02    1.3946735E-14
  1.4975000E-02   -2.2954381E-14
  1.5010000E-02   -2.4982598E-14
  1.5045000E-02    1.7917871E-14
  1.5080000E-02    3.6114883E-14
  1.5115000E-02   -7.7929852E-15
  1.5150000E-02   -4.5411764E-14
  1.5185000E-02   -7.6115211E-15
  1.5220000E-02    5.0529906E-14
  1.5255000E-02    2.7605656E-14
  1.5290000E-02   -4.8993490E-14
  1.5325000E-02   -5.0415452E-14
  1.5360000E-02    3.8602541E-14
  1.5395000E-02    7.3112164E-14
  1.5430000E-02   -1.7936702E-14
  1.5465000E-02   -9.1731188E-14
  1.5500000E-02   -1.3104976E-14
  1.5535000E-02    1.0163026E-13
  1.5570000E-02    5.2824180E-14
  1.5605000E-02   -9.8096166E-14
  1.5640000E-02   -9.7411438E-14
  1.5675001E-02    7.7176811E-14
  1.5710000E-02    1.4092277E-13
  1.5745001E-02   -3.6647687E-14
  1.5780000E-02   -1.7564849E-13
  1.5814999E-02   -2.3027629E-14
  1.5850000E-02    1.9291922E-13
  1.5884999E-02    9.7914955E-14
  1.5920000E-02   -1.8435428E-13
  1.5954999E-02   -1.8022697E-13
  1.5990000E-02    1.4344134E-13
  1.6024999E-02    2.5852695E-13
  1.6060000E-02   -6.7253942E-14
  1.6094999E-02   -3.1865379E-13
  1.6130000E-02   -4.1962453E-14
  1.6164999E-02    3.4542773E-13
  1.6200000E-02    1.7569565E-13
  1.6235000E-02   -3.2501812E-13
  1.6270000E-02   -3.1888104E-13
  1.6305000E-02    2.4775025E-13
  1.6340001E-02    4.5073052E-13
  1.6375000E-02   -1.1092046E-13
  1.6410001E-02   -5.4681140E-13
  1.6445000E-02   -7.8869345E-14
  1.6480001E-02    5.8232873E-13
  1.6515000E-02    3.0444655E-13
  1.6550001E-02   -5.3634202E-13
  1.6585000E-02   -5.3836829E-13
  1.6620001E-02    3.9633493E-13
  1.6655000E-02    7.4512483E-13
  1.6690001E-02   -1.6242335E-13
  1.6725000E-02   -8.8532209E-13
  1.6759999E-02   -1.4967584E-13
  1.6795000E-02    9.2154019E-13
  1.6829999E-02    5.0775503E-13
  1.6865000E-02   -8.2520736E-13
  1.6899999E-02   -8.6496191E-13
  1.6935000E-02    5.8342318E-13
  1.6969999E-02    1.1646347E-12
  1.7005000E-02   -2.0451207E-13
  1.7039999E-02   -1.3479076E-12
  1.7075000E-02   -2.7900349E-13
  1.7109999E-02    1.3633242E-12
  1.7145000E-02    8.1111653E-13
  1.7180000E-02   -1.1770482E-12
  1.7215000E-02   -1.3173306E-12
  1.7250000E-02    7.8197849E-13
  1.7285001E-02    1.7139092E-12
  1.7320000E-02   -2.0383151E-13
  1.7355001E-02   -1.9203970E-12
  1.7390000E-02   -4.9739542E-13
  1.7425001E-02    1.8739363E-12
  1.7460000E-02    1.2318329E-12
  1.7495001E-02   -1.5428672E-12
  1.7530000E-02   -1.8901488E-12
  1.7565001E-02    9.3712050E-13
  1.7600000E-02    2.3591686E-12
  1.7635001E-02   -1.1281460E-13
  1.7670000E-02   -2.5405197E-12
  1.7704999E-02   -8.3052001E-13
  1.7740000E-02    2.3695683E-12
  1.7774999E-02    1.7608952E-12
  1.7810000E-02   -1.8310360E-12
  1.7844999E-02   -2.5321561E-12
  1.7880000E-02    9.6805149E-13
  1.7914999E-02    3.0074060E-12
  1.7950000E-02    1.1831541E-13
  1.7984999E-02   -3.0835176E-12
  1.8020000E-02   -1.2797775E-12
  1.8054999E-02    2.7126738E-12
  1.8090000E-02    2.3413415E-12
  1.8124999E-02   -1.9164080E-12
  1.8160000E-02   -3.1289036E-12
  1.8195000E-02    7.8877643E-13
  1.8230001E-02    3.4999796E-12
  1.8265000E-02    5.1375451E-13
  1.8300001E-02   -3.3713963E-12
  1.8335000E-02   -1.7948659E-12
  1.8370001E-02    2.7384501E-12
  1.8405000E-02    2.8499939E-12
  1.8440001E-02   -1.6812665E-12
  1.8475000E-02   -3.5019535E-12
  1.8510001E-02    3.5644545E-13
  1.8545000E-02    3.6349179E-12
  1.8580001E-02    1.0268949E-12
  1.8615000E-02   -3.2192575E-12
  1.8650001E-02   -2.2434812E-12
  1.8685000E-02    2.3204826E-12
  1.8719999E-02    3.0929187E-12
  1.8755000E-02   -1.0900458E-12
  1.8789999E-02   -3.4370614E-12
  1.8825000E-02   -2.5947663E-13
  1.8859999E-02    3.2284689E-12
  1.8895000E-02    1.4929321E-12
  1.8929999E-02   -2.5233537E-12
  1.8965000E-02   -2.4000836E-12
  1.8999999E-02    1.4713901E-12
  1.9035000E-02    2.8393841E-12
  1.9069999E-02   -2.8336396E-13
  1.9105000E-02   -2.7647789E-12
  1.9140000E-02   -8.1172943E-13
  1.9175000E-02    2.2338078E-12
  1.9210000E-02    1.6123586E-12
  1.9245001E-02   -1.3985799E-12
  1.9280000E-02   -1.9916798E-12
  1.9315001E-02    4.7161510E-13
  1.9350000E-02    1.9318408E-12
  1.9385001E-02    3.3289737E-13
  1.9420000E-02   -1.5224357E-12
  1.9455001E-02   -8.5471474E-13
  1.9490000E-02    9.2803358E-13
  1.9525001E-02    1.0191822E-12
  1.9560000E-02   -3.4984643E-13
  1.9595001E-02   -8.5764344E-13
  1.9630000E-02   -2.2827075E-14
  1.9664999E-02    5.1571133E-13
  1.9700000E-02    8.6004310E-14
  1.9734999E-02   -2.0873690E-13
  1.9770000E-02    1.2549612E-13
  1.9804999E-02    1.2854721E-13
  1.9840000E-02   -4.5910183E-13
  1.9874999E-02   -3.7787728E-13
  1.9910000E-02    6.9926541E-13
  1.9944999E-02    9.5079316E-13
  1.9980000E-02   -5.9884329E-13
  2.0014999E-02   -1.6904070E-12
  2.0050000E-02   -4.8119101E-14
  2.0085000E-02    2.2595691E-12
  2.0120000E-02    1.2532860E-12
  2.0155000E-02   -2.2561228E-12
  2.0190001E-02   -2.7594155E-12
  2.0225000E-02    1.4079699E-12
  2.0260001E-02    4.1434187E-12
  2.0295000E-02    3.6120152E-13
  2.0330001E-02   -4.9080462E-12
  2.0365000E-02   -2.9265674E-12
  2.0400001E-02    4.4855972E-12
  2.0435000E-02    5.8145615E-12
  2.0470001E-02   -2.4305152E-12
  2.0505000E-02   -8.1408014E-12
  2.0540001E-02   -1.1987422E-12
  2.0575000E-02    8.9570478E-12
  2.0609999E-02    5.7766357E-12
  2.0645000E-02   -7.6385825E-12
  2.0679999E-02   -1.0402719E-11
  2.0715000E-02    3.8700458E-12
  2.0749999E-02    1.3936941E-11
  2.0785000E-02    2.2816302E-12
  2.0819999E-02   -1.4910056E-11
  2.0855000E-02   -9.8400003E-12
  2.0889999E-02    1.2140412E-11
  2.0925000E-02    1.6884051E-11
  2.0959999E-02   -5.5954707E-12
  2.0995000E-02   -2.1481119E-11
  2.1029999E-02   -3.7849268E-12
  2.1065000E-02    2.2212192E-11
  2.1100000E-02    1.4653898E-11
  2.1135001E-02   -1.7814673E-11
  2.1170000E-02   -2.4777864E-11
  2.1205001E-02    7.7466809E-12
  2.1240000E-02    3.0853101E-11
  2.1275001E-02    6.3435208E-12
  2.1310000E-02   -3.0329846E-11
  2.1345001E-02   -2.1081642E-11
  2.1380000E-02    2.2849856E-11
  2.1415001E-02    3.3432618E-11
  2.1450000E-02   -9.0780560E-12
  2.1485001E-02   -4.0638597E-11
  2.1520000E-02   -9.7617045E-12
  2.1555001E-02    3.9153441E-11
  2.1590000E-02    2.9726947E-11
  2.1624999E-02   -2.7086701E-11
  2.1660000E-02   -4.4574726E-11
  2.1694999E-02    7.1404866E-12
  2.1730000E-02    5.0277484E-11
  2.1764999E-02    1.6014082E-11
  2.1800000E-02   -4.5986364E-11
  2.1834999E-02   -3.9013858E-11
  2.1870000E-02    3.0498451E-11
  2.1904999E-02    5.6878880E-11
  2.1940000E-02   -3.9960808E-12
  2.1974999E-02   -6.1834822E-11
  2.2010000E-02   -2.6534931E-11
  2.2045000E-02    5.0752774E-11
  2.2080000E-02    5.1341181E-11
  2.2115000E-02   -2.8292634E-11
  2.2150001E-02   -6.6397471E-11
  2.2185000E-02   -1.3264166E-12
  2.2220001E-02    6.9744509E-11
  2.2255000E-02    3.6018917E-11
  2.2290001E-02   -5.5249579E-11
  2.2325000E-02   -6.6182317E-11
  2.2360001E-02    2.2321015E-11
  2.2395000E-02    7.8098854E-11
  2.2430001E-02    1.6289900E-11
  2.2465000E-02   -7.0218518E-11
  2.2500001E-02   -4.9197122E-11
  2.2535000E-02    4.9564436E-11
  2.2569999E-02    7.5681524E-11
  2.2605000E-02   -1.5076442E-11
  2.2639999E-02   -8.9211416E-11
  2.2675000E-02   -3.2593601E-11
  2.2709999E-02    7.4955903E-11
  2.2745000E-02    7.3759020E-11
  2.2779999E-02   -3.6233419E-11
  2.2815000E-02   -9.0521916E-11
  2.2849999E-02   -5.9327990E-12
  2.2885000E-02    8.9353185E-11
  2.2919999E-02    4.6116277E-11
  2.2955000E-02   -7.5187516E-11
  2.2990000E-02   -8.8652329E-11
  2.3025000E-02    3.4188520E-11
  2.3060000E-02    1.1289823E-10
  2.3095001E-02    2.7527909E-11
  2.3130000E-02   -9.6136106E-11
  2.3165001E-02   -7.3875461E-11
  2.3200000E-02    5.7042083E-11
  2.3235001E-02    9.4279758E-11
  2.3270000E-02   -1.9744383E-11
  2.3305001E-02   -1.0837011E-10
  2.3340000E-02   -3.0081652E-11
  2.3375001E-02    1.0341251E-10
  2.3410000E-02    9.2546755E-11
  2.3445001E-02   -5.0851000E-11
  2.3480000E-02   -1.1999082E-10
  2.3514999E-02   -1.8947642E-11
  2.3550000E-02    9.8121990E-11
  2.3584999E-02    5.8555924E-11
  2.3620000E-02   -7.1841678E-11
  2.3654999E-02   -8.7970811E-11
  2.3690000E-02    4.4168402E-11
  2.3724999E-02    1.2795402E-10
  2.3760000E-02    2.6199239E-11
  2.3794999E-02   -1.2440983E-10
  2.3830000E-02   -1.0556822E-10
  2.3864999E-02    5.6084946E-11
  2.3900000E-02    1.2241266E-10
  2.3934999E-02    2.3613754E-12
  2.3970000E-02   -1.0736420E-10
  2.4005000E-02   -2.7857040E-11
  2.4040001E-02    1.1629595E-10
  2.4075000E-02    8.6298794E-11
  2.4110001E-02   -9.1270144E-11
  2.4145000E-02   -1.5399895E-10
  2.4180001E-02   -6.2591941E-12
  2.4215000E-02    1.3435501E-10
  2.4250001E-02    7.4237005E-11
  2.4285000E-02   -6.8678230E-11
  2.4320001E-02   -6.7754552E-11
  2.4355000E-02    5.7659318E-11
  2.4390001E-02    8.9887271E-11
  2.4425000E-02   -3.7025643E-11
  2.4460001E-02   -1.3882960E-10
  2.4495000E-02   -6.4242826E-11
  2.4529999E-02    8.7676907E-11
  2.4565000E-02    1.2196262E-10
  2.4599999E-02    1.8242761E-11
  2.4635000E-02   -6.5495942E-11
  2.4669999E-02   -2.7522344E-11
  2.4705000E-02    4.5402820E-11
  2.4739999E-02    1.7601502E-11
  2.4775000E-02   -8.7513392E-11
  2.4809999E-02   -1.0688796E-10
  2.4845000E-02    2.4766236E-11
  2.4879999E-02    1.5341872E-10
  2.4915000E-02    1.0719703E-10
  2.4950000E-02   -4.7882597E-11
  2.4985000E-02   -9.6932622E-11
  2.5020000E-02   -2.4630233E-12
  2.5055001E-02    4.3847564E-11
  2.5090000E-02   -5.3571248E-11
  2.5125001E-02   -1.1969503E-10
  2.5160000E-02    4.1025499E-12
  2.5195001E-02    1.7383035E-10
  2.5230000E-02    1.4953438E-10
  2.5265001E-02   -2.8401682E-11
  2.5300000E-02   -1.1104283E-10
  2.5335001E-02   -3.3801895E-11
  2.5370000E-02    1.9729234E-11
  2.5405001E-02   -4.3698167E-11
  2.5440000E-02   -7.8083290E-11
  2.5474999E-02    3.2481923E-11
  2.5510000E-02    1.6711985E-10
  2.5544999E-02    1.5556802E-10
  2.5580000E-02    2.4126727E-11
  2.5614999E-02   -7.3521404E-11
  2.5650000E-02   -7.2274846E-11
  2.5684999E-02   -2.8679297E-11
  2.5720000E-02    2.1306234E-13
  2.5754999E-02    2.0231473E-11
  2.5790000E-02    6.7130690E-11
  2.5824999E-02    1.4886965E-10
  2.5860000E-02    2.0323274E-10
  2.5895000E-02    1.3930471E-10
  2.5930000E-02   -2.1361659E-11
  2.5965000E-02   -1.0694219E-10
  2.6000001E-02   -9.4856813E-12
  2.6035000E-02    1.3662810E-10
  2.6070001E-02    1.5361722E-10
  2.6105000E-02    1.1746479E-10
  2.6140001E-02    2.1821395E-10
  2.6175000E-02    3.7709019E-10
  2.6210001E-02    3.2262534E-10
  2.6245000E-02    7.3550506E-11
  2.6280001E-02   -1.5066975E-11
  2.6315000E-02    1.9725697E-10
  2.6350001E-02    4.0675033E-10
  2.6385000E-02    3.8182910E-10
  2.6419999E-02    3.4303402E-10
  2.6455000E-02    5.3485721E-10
  2.6489999E-02    7.4917206E-10
  2.6525000E-02    6.6694011E-10
  2.6559999E-02    4.3260390E-10
  2.6595000E-02    4.4720266E-10
  2.6629999E-02    7.3454126E-10
  2.6665000E-02    9.5859565E-10
  2.6699999E-02    1.0021629E-09
  2.6735000E-02    1.0893177E-09
  2.6769999E-02    1.3258845E-09
  2.6805000E-02    1.5234347E-09
  2.6839999E-02    1.5535160E-09
  2.6875000E-02    1.5497065E-09
  2.6910000E-02    1.6755711E-09
  2.6945001E-02    1.9431150E-09
  2.6980000E-02    2.2969191E-09