 -4.8000002E-03    1.0000000E-24
 -4.7650002E-03    1.0000002E-24
 -4.7300002E-03    1.0000001E-24
 -4.6950001E-03    1.0000000E-24
 -4.6600001E-03    1.0000001E-24
 -4.6250001E-03    1.0000002E-24
 -4.5900000E-03    1.0000002E-24
 -4.5550000E-03    1.0000000E-24
 -4.5200000E-03    9.9999982E-25
 -4.4849999E-03    1.0000002E-24
 -4.4499999E-03    1.0000001E-24
 -4.4149999E-03    9.9999982E-25
 -4.3799998E-03    9.9999992E-25
 -4.3449998E-03    1.0000005E-24
 -4.3100002E-03    1.0000005E-24
 -4.2750002E-03    1.0000000E-24
 -4.2400002E-03    9.9999982E-25
 -4.2050001E-03    1.0000000E-24
 -4.1700001E-03    1.0000001E-24
 -4.1350001E-03    9.9999982E-25
 -4.1000000E-03    1.0000000E-24
 -4.0650000E-03    1.0000001E-24
 -4.0300000E-03    1.0000000E-24
 -3.9949999E-03    9.9999992E-25
 -3.9599999E-03    9.9999972E-25
 -3.9249999E-03    9.9999982E-25
 -3.8900001E-03    1.0000002E-24
 -3.8550000E-03    1.0000003E-24
 -3.8200000E-03    1.0000002E-24
 -3.7849999E-03    1.0000003E-24
 -3.7499999E-03    1.0000001E-24
 -3.7150001E-03    9.9999992E-25
 -3.6800001E-03    1.0000003E-24
 -3.6450000E-03    1.0000001E-24
 -3.6100000E-03    9.9999982E-25
 -3.5750000E-03    1.0000001E-24
 -3.5399999E-03    1.0000002E-24
 -3.5049999E-03    9.9999963E-25
 -3.4700001E-03    1.0000002E-24
 -3.4350001E-03    1.0000005E-24
 -3.4000000E-03    9.9999953E-25
 -3.3650000E-03    9.9999963E-25
 -3.3300000E-03    1.0000006E-24
 -3.2949999E-03    1.0000002E-24
 -3.2599999E-03    9.9999963E-25
 -3.2250001E-03    1.0000002E-24
 -3.1900001E-03    1.0000010E-24
 -3.1550000E-03    9.9999953E-25
 -3.1200000E-03    9.9999923E-25
 -3.0850000E-03    1.0000009E-24
 -3.0499999E-03    1.0000014E-24
 -3.0149999E-03    9.9999913E-25
 -2.9800001E-03    9.9999884E-25
 -2.9450001E-03    1.0000012E-24
 -2.9100000E-03    1.0000007E-24
 -2.8750000E-03    9.9999854E-25
 -2.8400000E-03    1.0000002E-24
 -2.8049999E-03    1.0000017E-24
 -2.7699999E-03    9.9999972E-25
 -2.7350001E-03    9.9999884E-25
 -2.7000001E-03    1.0000008E-24
 -2.6650000E-03    1.0000015E-24
 -2.6300000E-03    9.9999963E-25
 -2.5950000E-03    9.9999933E-25
 -2.5599999E-03    1.0000003E-24
 -2.5249999E-03    9.9999963E-25
 -2.4900001E-03    9.9999943E-25
 -2.4550001E-03    1.0000004E-24
 -2.4200000E-03    1.0000009E-24
 -2.3850000E-03    1.0000001E-24
 -2.3500000E-03    9.9999943E-25
 -2.3149999E-03    9.9999963E-25
 -2.2799999E-03    9.9999982E-25
 -2.2450001E-03    1.0000000E-24
 -2.2100001E-03    1.0000003E-24
 -2.1750000E-03    1.0000002E-24
 -2.1400000E-03    1.0000002E-24
 -2.1050000E-03    1.0000003E-24
 -2.0699999E-03    1.0000009E-24
 -2.0349999E-03    1.0000004E-24
 -2.0000001E-03    9.9999982E-25
 -1.9650001E-03    9.9999992E-25
 -1.9300000E-03    9.9999963E-25
 -1.8950000E-03    9.9999933E-25
 -1.8600000E-03    1.0000003E-24
 -1.8250000E-03    1.0000008E-24
 -1.7900000E-03    1.0000003E-24
 -1.7550000E-03    9.9999943E-25
 -1.7199999E-03    9.9999933E-25
 -1.6850000E-03    1.0000000E-24
 -1.6500000E-03    1.0000001E-24
 -1.6150000E-03    9.9999972E-25
 -1.5800000E-03    1.0000003E-24
 -1.5450000E-03    1.0000009E-24
 -1.5100000E-03    1.0000003E-24
 -1.4750001E-03    1.0000004E-24
 -1.4400000E-03    9.9999982E-25
 -1.4050000E-03    9.9999953E-25
 -1.3700000E-03    1.0000008E-24
 -1.3350000E-03    9.9999992E-25
 -1.3000000E-03    9.9999815E-25
 -1.2650000E-03    9.9999923E-25
 -1.2300001E-03    1.0000007E-24
 -1.1950000E-03    1.0000003E-24
 -1.1600000E-03    1.0000002E-24
 -1.1250000E-03    1.0000011E-24
 -1.0900000E-03    1.0000008E-24
 -1.0550000E-03    9.9999982E-25
 -1.0200000E-03    9.9999972E-25
 -9.8500005E-04    9.9999923E-25
 -9.5000002E-04    9.9999963E-25
 -9.1499998E-04    1.0000010E-24
 -8.8000001E-04    1.0000002E-24
 -8.4499997E-04    9.9999884E-25
 -8.1000000E-04    1.0000005E-24
 -7.7500002E-04    1.0000011E-24
 -7.3999999E-04    9.9999893E-25
 -7.0500001E-04    9.9999903E-25
 -6.6999998E-04    1.0000013E-24
 -6.3500000E-04    1.0000011E-24
 -6.0000003E-04    9.9999953E-25
 -5.6499999E-04    9.9999992E-25
 -5.3000002E-04    1.0000004E-24
 -4.9499999E-04    9.9999972E-25
 -4.6000001E-04    1.0000000E-24
 -4.2500001E-04    1.0000007E-24
 -3.9000000E-04    1.0000002E-24
 -3.5500000E-04    9.9999933E-25
 -3.1999999E-04    9.9999963E-25
 -2.8499999E-04    9.9999992E-25
 -2.5000001E-04    1.0000003E-24
 -2.1499999E-04    1.0000005E-24
 -1.8000000E-04    9.9999982E-25
 -1.4500000E-04    1.0000000E-24
 -1.1000000E-04    1.0000006E-24
 -7.5000004E-05    1.0000003E-24
 -3.9999999E-05    9.9999933E-25
 -4.9999999E-06    9.9999953E-25
  2.9999999E-05    1.0000006E-24
  6.5000000E-05    1.0000004E-24
  9.9999997E-05    1.0000001E-24
  1.3499999E-04    1.0000008E-24
  1.7000000E-04    1.0000005E-24
  2.0500000E-04    9.9999874E-25
  2.3999999E-04    9.9999903E-25
  2.7500000E-04    1.0000002E-24
  3.1000000E-04    1.0000001E-24
  3.4500001E-04    1.0000003E-24
  3.8000001E-04    1.0000013E-24
  4.1499999E-04    1.0000002E-24
  4.4999999E-04    9.9999923E-25
  4.8500000E-04    1.0000002E-24
  5.2000000E-04    1.0000006E-24
  5.5499998E-04    9.9999933E-25
  5.9000001E-04    1.0000004E-24
  6.2499999E-04    1.0000020E-24
  6.6000002E-04    9.9999963E-25
  6.9500000E-04    9.9999854E-25
  7.3000003E-04    1.0000011E-24
  7.6500000E-04    1.0000001E-24
  7.9999998E-04    9.9999726E-25
  8.3500001E-04    1.0000005E-24
  8.6999999E-04    1.0000036E-24
  9.0500002E-04    9.9999972E-25
  9.4000000E-04    9.9999805E-25
  9.7499997E-04    1.0000015E-24
  1.0100000E-03    1.0000007E-24
  1.0450000E-03    9.9999726E-25
  1.0800000E-03    9.9999913E-25
  1.1150000E-03    1.0000023E-24
  1.1500000E-03    1.0000007E-24
  1.1849999E-03    9.9999992E-25
  1.2200000E-03    1.0000016E-24
  1.2550000E-03    9.9999943E-25
  1.2900000E-03    9.9999805E-25
  1.3250000E-03    1.0000005E-24
  1.3600000E-03    1.0000003E-24
  1.3950000E-03    9.9999785E-25
  1.4299999E-03    1.0000012E-24
  1.4650000E-03    1.0000040E-24
  1.5000000E-03    9.9999893E-25
  1.5350000E-03    9.9999686E-25
  1.5700000E-03    1.0000019E-24
  1.6050000E-03    1.0000019E-24
  1.6400000E-03    9.9999746E-25
  1.6749999E-03    1.0000002E-24
  1.7100000E-03    1.0000036E-24
  1.7450000E-03    9.9999923E-25
  1.7800000E-03    9.9999696E-25
  1.8150000E-03    1.0000005E-24
  1.8500000E-03    1.0000006E-24
  1.8850000E-03    9.9999864E-25
  1.9200000E-03    1.0000012E-24
  1.9550000E-03    1.0000026E-24
  1.9900000E-03    9.9999963E-25
  2.0250001E-03    9.9999893E-25
  2.0600001E-03    1.0000012E-24
  2.0949999E-03    1.0000006E-24
  2.1299999E-03    9.9999972E-25
  2.1650000E-03    1.0000004E-24
  2.2000000E-03    9.9999992E-25
  2.2350000E-03    9.9999982E-25
  2.2700001E-03    1.0000008E-24
  2.3050001E-03    1.0000000E-24
  2.3399999E-03    9.9999834E-25
  2.3749999E-03    9.9999992E-25
  2.4100000E-03    1.0000014E-24
  2.4450000E-03    1.0000003E-24
  2.4800000E-03    9.9999992E-25
  2.5150001E-03    1.0000014E-24
  2.5500001E-03    9.9999992E-25
  2.5849999E-03    9.9999755E-25
  2.6199999E-03    9.9999953E-25
  2.6550000E-03    1.0000021E-24
  2.6900000E-03    9.9999972E-25
  2.7250000E-03    9.9999834E-25
  2.7600001E-03    1.0000017E-24
  2.7950001E-03    1.0000022E-24
  2.8299999E-03    9.9999844E-25
  2.8649999E-03    9.9999874E-25
  2.9000000E-03    1.0000016E-24
  2.9350000E-03    9.9999953E-25
  2.9700000E-03    9.9999844E-25
  3.0050001E-03    1.0000017E-24
  3.0400001E-03    1.0000012E-24
  3.0749999E-03    9.9999815E-25
  3.1099999E-03    9.9999982E-25
  3.1450000E-03    1.0000006E-24
  3.1800000E-03    9.9999903E-25
  3.2150000E-03    1.0000012E-24
  3.2500001E-03    1.0000017E-24
  3.2850001E-03    9.9999884E-25
  3.3199999E-03    1.0000006E-24
  3.3549999E-03    1.0000014E-24
  3.3900000E-03    9.9999815E-25
  3.4250000E-03    9.9999913E-25
  3.4600000E-03    1.0000018E-24
  3.4950001E-03    9.9999992E-25
  3.5300001E-03    9.9999953E-25
  3.5649999E-03    1.0000017E-24
  3.5999999E-03    9.9999943E-25
  3.6350000E-03    9.9999716E-25
  3.6700000E-03    9.9999992E-25
  3.7050000E-03    1.0000011E-24
  3.7400001E-03    9.9999913E-25
  3.7750001E-03    9.9999943E-25
  3.8099999E-03    1.0000020E-24
  3.8449999E-03    1.0000015E-24
  3.8800000E-03    9.9999854E-25
  3.9149998E-03    9.9999903E-25
  3.9499998E-03    1.0000008E-24
  3.9849998E-03    9.9999963E-25
  4.0199999E-03    9.9999933E-25
  4.0549999E-03    1.0000027E-24
  4.0899999E-03    1.0000022E-24
  4.1250000E-03    9.9999854E-25
  4.1600000E-03    9.9999923E-25
  4.1950000E-03    1.0000009E-24
  4.2300001E-03    9.9999972E-25
  4.2650001E-03    9.9999903E-25
  4.3000001E-03    9.9999903E-25
  4.3350002E-03    9.9999953E-25
  4.3700002E-03    1.0000010E-24
  4.4049998E-03    1.0000004E-24
  4.4399998E-03    9.9999923E-25
  4.4749998E-03    1.0000010E-24
  4.5099999E-03    1.0000018E-24
  4.5449999E-03    9.9999834E-25
  4.5799999E-03    9.9999726E-25
  4.6150000E-03    1.0000018E-24
  4.6500000E-03    1.0000033E-24
  4.6850001E-03    9.9999933E-25
  4.7200001E-03    9.9999943E-25
  4.7550001E-03    1.0000019E-24
  4.7900002E-03    9.9999598E-25
  4.8250002E-03    9.9999696E-25
  4.8600002E-03    1.0000115E-24
  4.8949998E-03    9.9999874E-25
  4.9299998E-03    9.9997280E-25
  4.9649999E-03    1.0000143E-24
  4.9999999E-03    1.0000559E-24
  5.0349999E-03    9.9996058E-25
  5.0700000E-03    9.9989865E-25
  5.1050000E-03    1.0000854E-24
  5.1400000E-03    1.0001719E-24
  5.1750001E-03    9.9983870E-25
  5.2100001E-03    9.9971978E-25
  5.2450001E-03    1.0002809E-24
  5.2800002E-03    1.0004506E-24
  5.3150002E-03    9.9954879E-25
  5.3500002E-03    9.9929172E-25
  5.3849998E-03    1.0006787E-24
  5.4199998E-03    1.0010914E-24
  5.4549999E-03    9.9904727E-25
  5.4899999E-03    9.9834785E-25
  5.5249999E-03    1.0012184E-24
  5.5600000E-03    1.0024458E-24
  5.5950000E-03    9.9865274E-25
  5.6300000E-03    9.9648121E-25
  5.6650001E-03    1.0010795E-24
  5.7000001E-03    1.0048732E-24
  5.7350001E-03    1.0000662E-24
  5.7700002E-03    9.9362819E-25
  5.8050002E-03    9.9710924E-25
  5.8400002E-03    1.0076023E-24
  5.8749998E-03    1.0086703E-24
  5.9099998E-03    9.9242143E-25
  5.9449999E-03    9.8072144E-25
  5.9799999E-03    1.0042793E-24
  6.0149999E-03    1.0372441E-24
  6.0500000E-03    1.0060727E-24
  6.0850000E-03    9.3437172E-25
  6.1200000E-03    9.6989561E-25
  6.1550001E-03    1.1074396E-24
  6.1900001E-03    1.0787558E-24
  6.2250001E-03    8.3576746E-25
  6.2600002E-03    8.3094072E-25
  6.2950002E-03    1.2333082E-24
  6.3299998E-03    1.3259508E-24
  6.3649998E-03    6.9732499E-25
  6.3999998E-03    4.1666928E-25
  6.4349999E-03    1.3427921E-24
  6.4699999E-03    1.9828883E-24
  6.5049999E-03    7.0597105E-25
  6.5400000E-03   -5.6799706E-25
  6.5750000E-03    1.0492110E-24
  6.6100000E-03    3.3683947E-24
  6.6450001E-03    1.5683225E-24
  6.6800001E-03   -2.3692132E-24
  6.7150001E-03   -8.2819883E-25
  6.7500002E-03    5.4557151E-24
  6.7850002E-03    5.1105076E-24
  6.8199998E-03   -4.3232761E-24
  6.8549998E-03   -6.9022229E-24
  6.8899998E-03    6.3424385E-24
  6.9249999E-03    1.4746533E-23
  6.9599999E-03   -2.3730196E-24
  6.9949999E-03   -2.1103307E-23
  7.0300000E-03   -1.4667392E-24
  7.0650000E-03    3.4061430E-23
  7.1000000E-03    1.6044842E-23
  7.1350001E-03   -4.4825159E-23
  7.1700001E-03   -3.7399987E-23
  7.2050001E-03    5.8887495E-23
  7.2400002E-03    7.8724084E-23
  7.2750002E-03   -6.2812488E-23
  7.3099998E-03   -1.3790441E-22
  7.3449998E-03    5.4600692E-23
  7.3799998E-03    2.2826716E-22
  7.4149999E-03   -9.7327671E-24
  7.4499999E-03   -3.4403140E-22
  7.4850000E-03   -8.8792801E-23
  7.5200000E-03    4.8786985E-22
  7.5550000E-03    2.8372906E-22
  7.5900001E-03   -6.3197957E-22
  7.6250001E-03   -6.1094518E-22
  7.6600001E-03    7.4022138E-22
  7.6950002E-03    1.1269399E-21
  7.7300002E-03   -7.2344583E-22
  7.7650002E-03   -1.8657761E-21
  7.7999998E-03    4.5720217E-22
  7.8349998E-03    2.8499444E-21
  7.8699999E-03    2.6315632E-22
  7.9049999E-03   -4.0233237E-21
  7.9399999E-03   -1.6961716E-21
  7.9750000E-03    5.2310187E-21
  8.0100000E-03    4.1753335E-21
  8.0450000E-03   -6.1170325E-21
  8.0800001E-03   -8.0357511E-21
  8.1150001E-03    6.0715550E-21
  8.1500001E-03    1.3556298E-20
  8.1850002E-03   -4.1126002E-21
  8.2200002E-03   -2.0768983E-20
  8.2550002E-03   -1.1454086E-21
  8.2900003E-03    2.9243723E-20
  8.3250003E-03    1.1520472E-20
  8.3600003E-03   -3.7711348E-20
  8.3950004E-03   -2.9097752E-20
  8.4300004E-03    4.3663081E-20
  8.4650004E-03    5.5913823E-20
  8.5000005E-03   -4.2845300E-20
  8.5349996E-03   -9.3263024E-20
  8.5699996E-03    2.8884714E-20
  8.6049996E-03    1.4065881E-19
  8.6399997E-03    6.9040775E-21
  8.6749997E-03   -1.9426151E-19
  8.7099997E-03   -7.5124944E-20
  8.7449998E-03    2.4492402E-19
  8.7799998E-03    1.8708314E-19
  8.8149998E-03   -2.7591018E-19
  8.8499999E-03   -3.5218362E-19
  8.8849999E-03    2.6081871E-19
  8.9199999E-03    5.7364676E-19
  8.9550000E-03   -1.6233161E-19
  8.9900000E-03   -8.4213955E-19
  9.0250000E-03   -6.6996382E-20
  9.0600001E-03    1.1274877E-18
  9.0950001E-03    4.8055011E-19
  9.1300001E-03   -1.3690014E-18
  9.1650002E-03   -1.1282144E-18
  9.2000002E-03    1.4661377E-18
  9.2350002E-03    2.0401326E-18
  9.2700003E-03   -1.2721294E-18
  9.3050003E-03   -3.2023667E-18
  9.3400003E-03    5.9492163E-19
  9.3750004E-03    4.5247822E-18
  9.4100004E-03    7.8915646E-19
  9.4450004E-03   -5.8033945E-18
  9.4799995E-03   -3.1025572E-18
  9.5149996E-03    6.6831565E-18
  9.5499996E-03    6.5084291E-18
  9.5849996E-03   -6.6312530E-18
  9.6199997E-03   -1.1023299E-17
  9.6549997E-03    4.9358256E-18
  9.6899997E-03    1.6401374E-17
  9.7249998E-03   -7.4970677E-19
  9.7599998E-03   -2.1999340E-17
  9.7949998E-03   -6.7992265E-18
  9.8299999E-03    2.6642538E-17
  9.8649999E-03    1.8411009E-17
  9.8999999E-03   -2.8527309E-17
  9.9350000E-03   -3.4317570E-17
  9.9700000E-03    2.5210387E-17
  1.0005000E-02    5.3893649E-17
  1.0040000E-02   -1.3748609E-17
  1.0075000E-02   -7.5206950E-17
  1.0110000E-02   -8.9417215E-18
  1.0145000E-02    9.4578183E-17
  1.0180000E-02    4.5447738E-17
  1.0215000E-02   -1.0626658E-16
  1.0250000E-02   -9.6912851E-17
  1.0285000E-02    1.0244016E-16
  1.0320000E-02    1.6181028E-16
  1.0355000E-02   -7.3628895E-17
  1.0390000E-02   -2.3455335E-16
  1.0425000E-02    9.8538288E-18
  1.0460000E-02    3.0417244E-16
  1.0495000E-02    9.7406513E-17
  1.0530000E-02   -3.5341375E-16
  1.0565000E-02   -2.5235557E-16
  1.0600000E-02    3.5874611E-16
  1.0635000E-02    4.5125866E-16
  1.0670000E-02   -2.9181429E-16
  1.0705000E-02   -6.7845629E-16
  1.0740000E-02    1.2286610E-16
  1.0775000E-02    9.0272515E-16
  1.0810000E-02    1.7346920E-16
  1.0845000E-02   -1.0750155E-15
  1.0880000E-02   -6.1003715E-16
  1.0915000E-02    1.1289219E-15
  1.0950000E-02    1.1771846E-15
  1.0985000E-02   -9.8525867E-16
  1.1020000E-02   -1.8321501E-15
  1.1055000E-02    5.6204389E-16
  1.1090000E-02    2.4899635E-15
  1.1125000E-02    2.0946227E-16
  1.1160000E-02   -3.0185984E-15
  1.1195000E-02   -1.3629675E-15
  1.1230000E-02    3.2418668E-15
  1.1265000E-02    2.8714868E-15
  1.1300000E-02   -2.9532494E-15
  1.1335000E-02   -4.6213935E-15
  1.1370000E-02    1.9434949E-15
  1.1405000E-02    6.3918364E-15
  1.1440000E-02   -4.2576022E-17
  1.1475000E-02   -7.8466134E-15
  1.1510000E-02   -2.8258199E-15
  1.1545000E-02    8.5463312E-15
  1.1580000E-02    6.5830172E-15
  1.1615000E-02   -7.9880569E-15
  1.1650000E-02   -1.0937226E-14
  1.1685000E-02    5.6768390E-15
  1.1720000E-02    1.5342409E-14
  1.1755000E-02   -1.2285657E-15
  1.1790000E-02   -1.8990438E-14
  1.1825000E-02   -5.5031413E-15
  1.1860000E-02    2.0853282E-14
  1.1895000E-02    1.4292160E-14
  1.1930000E-02   -1.9788172E-14
  1.1965000E-02   -2.4421498E-14
  1.2000000E-02    1.4711063E-14
  1.2035000E-02    3.4612758E-14
  1.2070000E-02   -4.8313235E-15
  1.2105000E-02   -4.3038134E-14
  1.2140000E-02   -1.0074781E-14
  1.2175000E-02    4.7444867E-14
  1.2210000E-02    2.9391901E-14
  1.2245000E-02   -4.5413106E-14
  1.2280000E-02   -5.1449581E-14
  1.2315000E-02    3.4746501E-14
  1.2350000E-02    7.3427118E-14
  1.2385000E-02   -1.3968076E-14
  1.2420000E-02   -9.1442865E-14
  1.2455000E-02   -1.7135812E-14
  1.2490000E-02    1.0087904E-13
  1.2525000E-02    5.7014818E-14
  1.2560000E-02   -9.6961576E-14
  1.2595000E-02   -1.0200582E-13
  1.2630000E-02    7.5574068E-14
  1.2665000E-02    1.4626028E-13
  1.2700000E-02   -3.4226582E-14
  1.2735000E-02   -1.8204866E-13
  1.2770000E-02   -2.6949507E-14
  1.2805000E-02    2.0051437E-13
  1.2840000E-02    1.0436169E-13
  1.2875000E-02   -1.9287657E-13
  1.2910000E-02   -1.9048237E-13
  1.2945000E-02    1.5199249E-13
  1.2980000E-02    2.7392791E-13
  1.3015000E-02   -7.4116426E-14
  1.3050000E-02   -3.4026127E-13
  1.3085000E-02   -3.9428686E-14
  1.3120000E-02    3.7357183E-13
  1.3155000E-02    1.8098462E-13
  1.3190000E-02   -3.5877334E-13
  1.3225000E-02   -3.3604060E-13
  1.3260000E-02    2.8440881E-13
  1.3295000E-02    4.8377974E-13
  1.3330000E-02   -1.4559408E-13
  1.3365000E-02   -5.9886297E-13
  1.3400000E-02   -5.3381341E-14
  1.3435000E-02    6.5447799E-13
  1.3470000E-02    2.9735253E-13
  1.3505000E-02   -6.2643873E-13
  1.3540000E-02   -5.6001753E-13
  1.3575000E-02    4.9786650E-13
  1.3610000E-02    8.0551077E-13
  1.3645000E-02   -2.6380197E-13
  1.3680000E-02   -9.9200281E-13
  1.3715000E-02   -6.5111714E-14
  1.3750000E-02    1.0771832E-12
  1.3785000E-02    4.6071594E-13
  1.3820000E-02   -1.0251282E-12
  1.3855000E-02   -8.7801007E-13
  1.3890000E-02    8.1360987E-13
  1.3925000E-02    1.2588099E-12
  1.3960000E-02   -4.4071647E-13
  1.3995000E-02   -1.5384497E-12
  1.4030000E-02   -7.0538105E-14
  1.4065000E-02    1.6550682E-12
  1.4100000E-02    6.7094225E-13
  1.4135000E-02   -1.5603257E-12
  1.4170000E-02   -1.2880475E-12
  1.4205000E-02    1.2299239E-12
  1.4240000E-02    1.8337914E-12
  1.4275000E-02   -6.7191912E-13
  1.4310000E-02   -2.2161136E-12
  1.4345000E-02   -6.8978074E-14
  1.4380000E-02    2.3533818E-12
  1.4415000E-02    9.1264984E-13
  1.4450000E-02   -2.1895962E-12
  1.4485000E-02   -1.7513696E-12
  1.4520000E-02    1.7075606E-12
  1.4555000E-02    2.4638507E-12
  1.4590000E-02   -9.3684273E-13
  1.4625000E-02   -2.9335642E-12
  1.4660000E-02   -4.5442792E-14
  1.4695000E-02    3.0683253E-12
  1.4730000E-02    1.1218839E-12
  1.4765000E-02   -2.8182942E-12
  1.4800000E-02   -2.1502281E-12
  1.4835000E-02    2.1885330E-12
  1.4870000E-02    2.9856929E-12
  1.4905000E-02   -1.2419935E-12
  1.4940000E-02   -3.5054726E-12
  1.4975000E-02    9.1164252E-14
  1.5010000E-02    3.6295086E-12
  1.5045000E-02    1.1188315E-12
  1.5080000E-02   -3.3345507E-12
  1.5115000E-02   -2.2332824E-12
  1.5150000E-02    2.6594655E-12
  1.5185000E-02    3.1152227E-12
  1.5220000E-02   -1.6974742E-12
  1.5255000E-02   -3.6704437E-12
  1.5290000E-02    5.7414718E-13
  1.5325000E-02    3.8594553E-12
  1.5360000E-02    5.7918188E-13
  1.5395000E-02   -3.6948951E-12
  1.5430000E-02   -1.6468447E-12
  1.5465000E-02    3.2320574E-12
  1.5500000E-02    2.5468252E-12
  1.5535000E-02   -2.5518834E-12
  1.5570000E-02   -3.2443657E-12
  1.5605000E-02    1.7305391E-12
  1.5640000E-02    3.7444015E-12
  1.5675001E-02   -8.1184419E-13
  1.5710000E-02   -4.0599104E-12
  1.5745001E-02   -1.9139880E-13
  1.5780000E-02    4.1863765E-12
  1.5814999E-02    1.2779345E-12
  1.5850000E-02   -4.0972651E-12
  1.5884999E-02   -2.4485208E-12
  1.5920000E-02    3.7330109E-12
  1.5954999E-02    3.6861230E-12
  1.5990000E-02   -2.9880107E-12
  1.6024999E-02   -4.8999073E-12
  1.6060000E-02    1.7543139E-12
  1.6094999E-02    5.8933765E-12
  1.6130000E-02   -1.1264732E-14
  1.6164999E-02   -6.4198907E-12
  1.6200000E-02   -2.1423334E-12
  1.6235000E-02    6.2495122E-12
  1.6270000E-02    4.5119208E-12
  1.6305000E-02   -5.1747738E-12
  1.6340001E-02   -6.7715937E-12
  1.6375000E-02    3.0714428E-12
  1.6410001E-02    8.4297855E-12
  1.6445000E-02   -7.2168000E-14
  1.6480001E-02   -8.9885955E-12
  1.6515000E-02   -3.3860629E-12
  1.6550001E-02    8.1741567E-12
  1.6585000E-02    6.7492257E-12
  1.6620001E-02   -5.9352480E-12
  1.6655000E-02   -9.4408431E-12
  1.6690001E-02    2.3792851E-12
  1.6725000E-02    1.0773361E-11
  1.6759999E-02    2.0107130E-12
  1.6795000E-02   -1.0156896E-11
  1.6829999E-02   -6.2632777E-12
  1.6865000E-02    7.5932021E-12
  1.6899999E-02    9.4033713E-12
  1.6935000E-02   -3.6481456E-12
  1.6969999E-02   -1.0884902E-11
  1.7005000E-02   -1.0518585E-12
  1.7039999E-02    1.0300479E-11
  1.7075000E-02    5.7152100E-12
  1.7109999E-02   -7.3240294E-12
  1.7145000E-02   -8.9659408E-12
  1.7180000E-02    2.5530270E-12
  1.7215000E-02    9.5988495E-12
  1.7250000E-02    2.3881884E-12
  1.7285001E-02   -7.7083262E-12
  1.7320000E-02   -6.2370499E-12
  1.7355001E-02    4.0304622E-12
  1.7390000E-02    8.4915859E-12
  1.7425001E-02    1.1383699E-12
  1.7460000E-02   -8.1139678E-12
  1.7495001E-02   -6.7643534E-12
  1.7530000E-02    4.0358736E-12
  1.7565001E-02    1.0156808E-11
  1.7600000E-02    2.4227562E-12
  1.7635001E-02   -9.5774387E-12
  1.7670000E-02   -8.3986229E-12
  1.7704999E-02    6.0391856E-12
  1.7740000E-02    1.2894540E-11
  1.7774999E-02   -2.9638518E-13
  1.7810000E-02   -1.5660483E-11
  1.7844999E-02   -8.3992691E-12
  1.7880000E-02    1.3809112E-11
  1.7914999E-02    1.7763395E-11
  1.7950000E-02   -5.3077477E-12
  1.7984999E-02   -2.2212255E-11
  1.8020000E-02   -5.9843259E-12
  1.8054999E-02    2.0300935E-11
  1.8090000E-02    1.5573263E-11
  1.8124999E-02   -1.5108375E-11
  1.8160000E-02   -2.4354971E-11
  1.8195000E-02    5.5568484E-12
  1.8230001E-02    3.1280072E-11
  1.8265000E-02    1.1228033E-11
  1.8300001E-02   -2.8438430E-11
  1.8335000E-02   -2.8448004E-11
  1.8370001E-02    1.3922150E-11
  1.8405000E-02    3.6002673E-11
  1.8440001E-02    2.6612423E-12
  1.8475000E-02   -3.6156977E-11
  1.8510001E-02   -1.7670525E-11
  1.8545000E-02    3.3903835E-11
  1.8580001E-02    3.7184786E-11
  1.8615000E-02   -2.0549985E-11
  1.8650001E-02   -5.4460415E-11
  1.8685000E-02   -8.2723516E-12
  1.8719999E-02    5.2366552E-11
  1.8755000E-02    3.4542119E-11
  1.8789999E-02   -3.5183835E-11
  1.8825000E-02   -4.6442312E-11
  1.8859999E-02    2.0604445E-11
  1.8895000E-02    5.7612314E-11
  1.8929999E-02   -1.5217624E-12
  1.8965000E-02   -6.8578906E-11
  1.8999999E-02   -3.4939426E-11
  1.9035000E-02    5.3812899E-11
  1.9069999E-02    6.4280602E-11
  1.9105000E-02   -1.6597916E-11
  1.9140000E-02   -6.2094378E-11
  1.9175000E-02   -6.5671370E-12
  1.9210000E-02    5.3680543E-11
  1.9245001E-02    1.7915856E-11
  1.9280000E-02   -5.7485284E-11
  1.9315001E-02   -4.9236719E-11
  1.9350000E-02    3.7632536E-11
  1.9385001E-02    7.6719443E-11
  1.9420000E-02    1.3453781E-11
  1.9455001E-02   -5.6688543E-11
  1.9490000E-02   -3.7890042E-11
  1.9525001E-02    2.5394133E-11
  1.9560000E-02    2.7664393E-11
  1.9595001E-02   -3.0106469E-11
  1.9630000E-02   -4.4901145E-11
  1.9664999E-02    2.1931020E-11
  1.9700000E-02    7.6814020E-11
  1.9734999E-02    3.4240295E-11
  1.9770000E-02   -4.9399262E-11
  1.9804999E-02   -5.9852873E-11
  1.9840000E-02    7.2956149E-13
  1.9874999E-02    2.5665655E-11
  1.9910000E-02   -1.6451628E-11
  1.9944999E-02   -3.0902184E-11
  1.9980000E-02    3.4459029E-11
  2.0014999E-02    8.4343164E-11
  2.0050000E-02    2.6280792E-11
  2.0085000E-02   -6.7112212E-11
  2.0120000E-02   -6.7076025E-11
  2.0155000E-02    3.6596533E-12
  2.0190001E-02    1.8432681E-11
  2.0225000E-02   -2.9073320E-11
  2.0260001E-02   -1.6736947E-11
  2.0295000E-02    7.5567018E-11
  2.0330001E-02    1.0436452E-10
  2.0365000E-02   -1.5193488E-12
  2.0400001E-02   -1.0550606E-10
  2.0435000E-02   -7.3639476E-11
  2.0470001E-02    1.5911212E-11
  2.0505000E-02    1.7217849E-11
  2.0540001E-02   -3.5479505E-11
  2.0575000E-02   -7.9895341E-13
  2.0609999E-02    1.0633316E-10
  2.0645000E-02    1.1811180E-10
  2.0679999E-02   -1.4423160E-11
  2.0715000E-02   -1.3182823E-10
  2.0749999E-02   -1.0258688E-10
  2.0785000E-02   -2.0774307E-12
  2.0819999E-02    3.0855814E-11
  2.0855000E-02    3.6054742E-12
  2.0889999E-02    2.2080216E-11
  2.0925000E-02    9.5432370E-11
  2.0959999E-02    1.1109153E-10
  2.0995000E-02    5.7158375E-12
  2.1029999E-02   -1.2999825E-10
  2.1065000E-02   -1.5707333E-10
  2.1100000E-02   -5.6474336E-11
  2.1135001E-02    5.5864497E-11
  2.1170000E-02    8.0213163E-11
  2.1205001E-02    5.1819170E-11
  2.1240000E-02    6.3473497E-11
  2.1275001E-02    9.8020529E-11
  2.1310000E-02    3.7261746E-11
  2.1345001E-02   -1.2890375E-10
  2.1380000E-02   -2.2035519E-10
  2.1415001E-02   -1.0179162E-10
  2.1450000E-02    9.5063485E-11
  2.1485001E-02    1.4616609E-10
  2.1520000E-02    6.7116215E-11
  2.1555001E-02    5.5664629E-11
  2.1590000E-02    1.2321860E-10
  2.1624999E-02    5.8477979E-11
  2.1660000E-02   -1.7210695E-10
  2.1694999E-02   -2.8166158E-10
  2.1730000E-02   -9.1630335E-11
  2.1764999E-02    1.5983084E-10
  2.1800000E-02    1.8108219E-10
  2.1834999E-02    7.1990101E-11
  2.1870000E-02    9.5981813E-11
  2.1904999E-02    1.8615705E-10
  2.1940000E-02    6.4874169E-11
  2.1974999E-02   -2.2192694E-10
  2.2010000E-02   -3.0234323E-10
  2.2045000E-02   -4.7076443E-11
  2.2080000E-02    2.3203760E-10
  2.2115000E-02    2.6091609E-10
  2.2150001E-02    1.5881929E-10
  2.2185000E-02    1.5329001E-10
  2.2220001E-02    2.0174855E-10
  2.2255000E-02    1.1263191E-10
  2.2290001E-02   -1.0456438E-10
  2.2325000E-02   -2.1141744E-10
  2.2360001E-02   -3.3503689E-11
  2.2395000E-02    3.1822650E-10
  2.2430001E-02    5.3689359E-10
  2.2465000E-02    4.4599530E-10
  2.2500001E-02    2.2560374E-10
  2.2535000E-02    1.9308406E-10
  2.2569999E-02    3.3898240E-10
  2.2605000E-02    3.3006578E-10
  2.2639999E-02    1.0178876E-10
  2.2675000E-02    9.6678381E-11
  2.2709999E-02    5.8740940E-10
  2.2745000E-02    1.0989154E-09
  2.2779999E-02    1.0216779E-09
  2.2815000E-02    5.7467997E-10
  2.2849999E-02    5.0919757E-10
  2.2885000E-02    9.3309482E-10
  2.2919999E-02    1.1770858E-09
  2.2955000E-02    9.5451413E-10
  2.2990000E-02    8.7309981E-10
  2.3025000E-02    1.4156913E-09
  2.3060000E-02    2.0920525E-09
  2.3095001E-02    2.1849069E-09
  2.3130000E-02    1.8583280E-09
  2.3165001E-02    1.8498318E-09
  2.3200000E-02    2.3394342E-09
  2.3235001E-02    2.8185017E-09
  2.3270000E-02    2.9954723E-09
  2.3305001E-02    3.1781546E-09
  2.3340000E-02    3.6667394E-09
  2.3375001E-02    4.2952721E-09
  2.3410000E-02    4.7608939E-09
  2.3445001E-02    5.0438893E-09
  2.3480000E-02    5.3358629E-09
  2.3514999E-02    5.8110521E-09
  2.3550000E-02    6.5579413E-09
  2.3584999E-02    7.4989801E-09
  2.3620000E-02    8.3608391E-09
  2.3654999E-02    8.9879233E-09
  2.3690000E-02    9.6450341E-09
  2.3724999E-02    1.0668830E-08
  2.3760000E-02    1.1895605E-08
  2.3794999E-02    1.2907646E-08
  2.3830000E-02    1.3810291E-08
  2.3864999E-02    1.5165917E-08
  2.3900000E-02    1.7060696E-08
  2.3934999E-02    1.8883119E-08
  2.3970000E-02    2.0279247E-08
  2.4005000E-02    2.1701409E-08
  2.4040001E-02    2.3642528E-08
  2.4075000E-02    2.5913838E-08
  2.4110001E-02    2.8149792E-08
  2.4145000E-02    3.0508179E-08
  2.4180001E-02    3.3319477E-08
  2.4215000E-02    3.6452725E-08
  2.4250001E-02    3.9577252E-08
  2.4285000E-02    4.2716316E-08
  2.4320001E-02    4.6070220E-08
  2.4355000E-02    4.9634728E-08
  2.4390001E-02    5.3437180E-08
  2.4425000E-02    5.7779634E-08
  2.4460001E-02    6.2779137E-08
  2.4495000E-02    6.8037416E-08
  2.4529999E-02    7.3257262E-08
  2.4565000E-02    7.8784190E-08
  2.4599999E-02    8.4965507E-08
  2.4635000E-02    9.1429619E-08
  2.4669999E-02    9.7750778E-08
  2.4705000E-02    1.0441190E-07
  2.4739999E-02    1.1221090E-07
  2.4775000E-02    1.2100949E-07
  2.4809999E-02    1.3002669E-07
  2.4845000E-02    1.3914088E-07
  2.4879999E-02    1.4891630E-07
  2.4915000E-02    1.5946141E-07
  2.4950000E-02    1.7024713E-07
  2.4985000E-02    1.8118490E-07
  2.5020000E-02    1.9296482E-07
  2.5055001E-02    2.0601532E-07
  2.5090000E-02    2.1995234E-07
  2.5125001E-02    2.3443251E-07
  2.5160000E-02    2.4971172E-07
  2.5195001E-02    2.6593605E-07
  2.5230000E-02    2.8268795E-07
  2.5265001E-02    2.9973239E-07
  2.5300000E-02    3.1754720E-07
  2.5335001E-02    3.3663474E-07
  2.5370000E-02    3.5692329E-07
  2.5405001E-02    3.7821158E-07
  2.5440000E-02    4.0062562E-07
  2.5474999E-02    4.2422764E-07
  2.5510000E-02    4.4868730E-07
  2.5544999E-02    4.7378708E-07
  2.5580000E-02    4.9983089E-07
  2.5614999E-02    5.2711090E-07
  2.5650000E-02    5.5549384E-07
  2.5684999E-02    5.8497920E-07
  2.5720000E-02    6.1601702E-07
  2.5754999E-02    6.4873137E-07
  2.5790000E-02    6.8255002E-07
  2.5824999E-02    7.1709911E-07
  2.5860000E-02    7.5280781E-07
  2.5895000E-02    7.9010675E-07
  2.5930000E-02    8.2869917E-07
  2.5965000E-02    8.6819847E-07
  2.6000001E-02    9.0898476E-07
  2.6035000E-02    9.5161005E-07
  2.6070001E-02    9.9579870E-07
  2.6105000E-02    1.0409939E-06
  2.6140001E-02    1.0873829E-06
  2.6175000E-02    1.1354173E-06
  2.6210001E-02    1.1848960E-06
  2.6245000E-02    1.2353510E-06
  2.6280001E-02    1.2869631E-06
  2.6315000E-02    1.3401997E-06
  2.6350001E-02    1.3949461E-06
  2.6385000E-02    1.4507517E-06
  2.6419999E-02    1.5076066E-06
  2.6455000E-02    1.5658434E-06
  2.6489999E-02    1.6256080E-06
  2.6525000E-02    1.6867261E-06
  2.6559999E-02    1.7489106E-06
  2.6595000E-02    1.8120278E-06
  2.6629999E-02    1.8761390E-06
  2.6665000E-02    1.9413401E-06
  2.6699999E-02    2.0076188E-06
  2.6735000E-02    2.0748525E-06
  2.6769999E-02    2.1428955E-06
  2.6805000E-02    2.2118197E-06
  2.6839999E-02    2.2817869E-06
  2.6875000E-02    2.3526770E-06
  2.6910000E-02    2.4241567E-06
  2.6945001E-02    2.4961894E-06
  2.6980000E-02    2.5688576E-06