 -4.8000002E-03    1.0000000E-24
 -4.7650002E-03    1.0000001E-24
 -4.7300002E-03    1.0000002E-24
 -4.6950001E-03    1.0000002E-24
 -4.6600001E-03    1.0000001E-24
 -4.6250001E-03    1.0000001E-24
 -4.5900000E-03    1.0000001E-24
 -4.5550000E-03    1.0000001E-24
 -4.5200000E-03    1.0000003E-24
 -4.4849999E-03    1.0000003E-24
 -4.4499999E-03    9.9999992E-25
 -4.4149999E-03    9.9999982E-25
 -4.3799998E-03    9.9999992E-25
 -4.3449998E-03    1.0000004E-24
 -4.3100002E-03    1.0000005E-24
 -4.2750002E-03    1.0000002E-24
 -4.2400002E-03    9.9999982E-25
 -4.2050001E-03    9.9999982E-25
 -4.1700001E-03    1.0000002E-24
 -4.1350001E-03    1.0000001E-24
 -4.1000000E-03    1.0000000E-24
 -4.0650000E-03    1.0000002E-24
 -4.0300000E-03    1.0000005E-24
 -3.9949999E-03    1.0000006E-24
 -3.9599999E-03    9.9999627E-25
 -3.9249999E-03    1.0000166E-24
 -3.8900001E-03    9.9999736E-25
 -3.8550000E-03    9.9959464E-25
 -3.8200000E-03    1.0019580E-24
 -3.7849999E-03    9.9859102E-25
 -3.7499999E-03    9.7949200E-25
 -3.7150001E-03    1.0751445E-24
 -3.6800001E-03    1.0020142E-24
 -3.6450000E-03    3.6531547E-25
 -3.6100000E-03    2.3221977E-24
 -3.5750000E-03    2.7161516E-24
 -3.5399999E-03   -1.0323265E-23
 -3.5049999E-03    1.0742059E-23
 -3.4700001E-03    4.5783897E-23
 -3.4350001E-03   -1.1897150E-22
 -3.4000000E-03   -3.5722818E-23
 -3.3650000E-03    6.0747712E-22
 -3.3300000E-03   -6.4730457E-22
 -3.2949999E-03   -1.7439554E-21
 -3.2599999E-03    4.6251574E-21
 -3.2250001E-03    1.6428313E-21
 -3.1900001E-03   -1.8258472E-20
 -3.1550000E-03    1.1496107E-20
 -3.1200000E-03    4.8338832E-20
 -3.0850000E-03   -7.4628267E-20
 -3.0499999E-03   -7.8646278E-20
 -3.0149999E-03    2.5924342E-19
 -2.9800001E-03    8.9427756E-21
 -2.9450001E-03   -6.2377033E-19
 -2.9100000E-03    4.2356727E-19
 -2.8750000E-03    1.0212500E-18
 -2.8400000E-03   -1.6034570E-18
 -2.8049999E-03   -7.2514732E-19
 -2.7699999E-03    3.5754427E-18
 -2.7350001E-03   -1.9016295E-18
 -2.7000001E-03   -4.8469364E-18
 -2.6650000E-03    9.0061481E-18
 -2.6300000E-03    6.2297009E-19
 -2.5950000E-03   -2.1155007E-17
 -2.5599999E-03    1.8238294E-17
 -2.5249999E-03    3.3311950E-17
 -2.4900001E-03   -6.3155074E-17
 -2.4550001E-03   -3.0870592E-17
 -2.4200000E-03    1.4077527E-16
 -2.3850000E-03   -9.4889916E-18
 -2.3500000E-03   -2.4270197E-16
 -2.3149999E-03    1.0903496E-16
 -2.2799999E-03    3.3924217E-16
 -2.2450001E-03   -2.6661206E-16
 -2.2100001E-03   -3.8659828E-16
 -2.1750000E-03    4.3922952E-16
 -2.1400000E-03    3.4952193E-16
 -2.1050000E-03   -5.4142738E-16
 -2.0699999E-03   -2.2504760E-16
 -2.0349999E-03    4.7443284E-16
 -2.0000001E-03    4.0677080E-17
 -1.9650001E-03   -1.7303839E-16
 -1.9300000E-03    1.8900906E-16
 -1.8950000E-03   -3.6417657E-16
 -1.8600000E-03   -5.2621001E-16
 -1.8250000E-03    1.0888455E-15
 -1.7900000E-03    1.1376815E-15
 -1.7550000E-03   -1.9427857E-15
 -1.7199999E-03   -2.2397753E-15
 -1.6850000E-03    2.8593789E-15
 -1.6500000E-03    3.9819421E-15
 -1.6150000E-03   -3.6835815E-15
 -1.5800000E-03   -6.3605656E-15
 -1.5450000E-03    4.0798951E-15
 -1.5100000E-03    9.2412040E-15
 -1.4750001E-03   -3.5999663E-15
 -1.4400000E-03   -1.2449421E-14
 -1.4050000E-03    1.9973928E-15
 -1.3700000E-03    1.5772457E-14
 -1.3350000E-03    4.3440701E-16
 -1.3000000E-03   -1.8755151E-14
 -1.2650000E-03   -2.9755592E-15
 -1.2300001E-03    2.0422137E-14
 -1.1950000E-03    5.2562697E-15
 -1.1600000E-03   -1.9363681E-14
 -1.1250000E-03   -8.1560930E-15
 -1.0900000E-03    1.4585587E-14
 -1.0550000E-03    1.3846234E-14
 -1.0200000E-03   -6.6914036E-15
 -9.8500005E-04   -2.4568001E-14
 -9.5000002E-04   -2.3630800E-15
 -9.1499998E-04    4.0681813E-14
 -8.8000001E-04    1.2677402E-14
 -8.4499997E-04   -5.8574131E-14
 -8.1000000E-04   -3.1427402E-14
 -7.7500002E-04    6.8556692E-14
 -7.3999999E-04    7.3568240E-14
 -7.0500001E-04   -5.3184325E-14
 -6.6999998E-04   -1.5273038E-13
 -6.3500000E-04   -1.3170044E-14
 -6.0000003E-04    2.6403120E-13
 -5.6499999E-04    1.6292738E-13
 -5.3000002E-04   -3.6806102E-13
 -4.9499999E-04   -4.3031624E-13
 -4.6000001E-04    3.8645031E-13
 -4.2500001E-04    8.3922924E-13
 -3.9000000E-04   -2.1148888E-13
 -3.5500000E-04   -1.3817643E-12
 -3.1999999E-04   -2.8230551E-13
 -2.8499999E-04    1.9818600E-12
 -2.5000001E-04    1.2328195E-12
 -2.1499999E-04   -2.4324631E-12
 -1.8000000E-04   -2.7464704E-12
 -1.4500000E-04    2.3435223E-12
 -1.1000000E-04    4.7483163E-12
 -7.5000004E-05   -1.2374955E-12
 -3.9999999E-05   -6.8162372E-12
 -4.9999999E-06   -1.1503727E-12
  2.9999999E-05    8.2657796E-12
  6.5000000E-05    4.6660219E-12
  9.9999997E-05   -8.4705567E-12
  1.3499999E-04   -8.9566670E-12
  1.7000000E-04    6.8915329E-12
  2.0500000E-04    1.3678505E-11
  2.3999999E-04   -2.7190463E-12
  2.7500000E-04   -1.7904905E-11
  3.1000000E-04   -4.7877830E-12
  3.4500001E-04    1.9443355E-11
  3.8000001E-04    1.4785912E-11
  4.1499999E-04   -1.5971044E-11
  4.4999999E-04   -2.4316689E-11
  4.8500000E-04    7.3868116E-12
  5.2000000E-04    3.0662865E-11
  5.5499998E-04    4.3602838E-12
  5.9000001E-04   -3.3563454E-11
  6.2499999E-04   -1.8448179E-11
  6.6000002E-04    3.2936535E-11
  6.9500000E-04    3.5613363E-11
  7.3000003E-04   -2.5397056E-11
  7.6500000E-04   -5.3385085E-11
  7.9999998E-04    7.3308174E-12
  8.3500001E-04    6.4299857E-11
  8.6999999E-04    1.8115171E-11
  9.0500002E-04   -6.3224134E-11
  9.4000000E-04   -4.2559022E-11
  9.7499997E-04    5.3450331E-11
  1.0100000E-03    6.2496140E-11
  1.0450000E-03   -3.9676429E-11
  1.0800000E-03   -8.0853983E-11
  1.1150000E-03    1.8826269E-11
  1.1500000E-03    9.5735836E-11
  1.1849999E-03    1.3103707E-11
  1.2200000E-03   -9.7578091E-11
  1.2550000E-03   -4.9054465E-11
  1.2900000E-03    8.2792710E-11
  1.3250000E-03    7.7743548E-11
  1.3600000E-03   -5.8340013E-11
  1.3950000E-03   -9.7585981E-11
  1.4299999E-03    2.7297416E-11
  1.4650000E-03    1.0967654E-10
  1.5000000E-03    1.3516003E-11
  1.5350000E-03   -1.0686884E-10
  1.5700000E-03   -5.7955817E-11
  1.6050000E-03    8.7115141E-11
  1.6400000E-03    9.7068700E-11
  1.6749999E-03   -5.6348034E-11
  1.7100000E-03   -1.3363935E-10
  1.7450000E-03    4.1351575E-12
  1.7800000E-03    1.5344624E-10
  1.8150000E-03    7.2860641E-11
  1.8500000E-03   -1.2483939E-10
  1.8850000E-03   -1.3141614E-10
  1.9200000E-03    7.0010379E-11
  1.9550000E-03    1.5702457E-10
  1.9900000E-03   -2.0101108E-11
  2.0250001E-03   -1.7336851E-10
  2.0600001E-03   -4.6720416E-11
  2.0949999E-03    1.4715931E-10
  2.1299999E-03    9.2331691E-11
  2.1650000E-03   -1.1247508E-10
  2.2000000E-03   -1.6526466E-10
  2.2350000E-03   -4.2162801E-11
  2.2700001E-03    5.0661319E-11
  2.3050001E-03    1.4088544E-11
  2.3399999E-03   -8.6748587E-11
  2.3749999E-03   -1.6355510E-10
  2.4100000E-03   -1.5843257E-10
  2.4450000E-03   -7.9375721E-11
  2.4800000E-03   -6.2229735E-11
  2.5150001E-03   -2.2797507E-10
  2.5500001E-03   -4.3483497E-10
  2.5849999E-03   -4.3521817E-10
  2.6199999E-03   -3.1042785E-10
  2.6550000E-03   -3.9296524E-10
  2.6900000E-03   -7.1395545E-10
  2.7250000E-03   -9.3401320E-10
  2.7600001E-03   -9.1031305E-10
  2.7950001E-03   -9.3411334E-10
  2.8299999E-03   -1.2463355E-09
  2.8649999E-03   -1.6790030E-09
  2.9000000E-03   -2.0055668E-09
  2.9350000E-03   -2.3070246E-09
  2.9700000E-03   -2.7408829E-09
  3.0050001E-03   -3.2903098E-09
  3.0400001E-03   -3.9192312E-09
  3.0749999E-03   -4.6335065E-09
  3.1099999E-03   -5.3935101E-09
  3.1450000E-03   -6.2752288E-09
  3.1800000E-03   -7.4870306E-09
  3.2150000E-03   -9.0004990E-09
  3.2500001E-03   -1.0551261E-08
  3.2850001E-03   -1.2126132E-08
  3.3199999E-03   -1.4071716E-08
  3.3549999E-03   -1.6630491E-08
  3.3900000E-03   -1.9556449E-08
  3.4250000E-03   -2.2480082E-08
  3.4600000E-03   -2.5768209E-08
  3.4950001E-03   -3.0213837E-08
  3.5300001E-03   -3.5545106E-08
  3.5649999E-03   -4.0817035E-08
  3.5999999E-03   -4.6493135E-08
  3.6350000E-03   -5.3828508E-08
  3.6700000E-03   -6.2532358E-08
  3.7050000E-03   -7.1645481E-08
  3.7400001E-03   -8.1654960E-08
  3.7750001E-03   -9.3621161E-08
  3.8099999E-03   -1.0764078E-07
  3.8449999E-03   -1.2316019E-07
  3.8800000E-03   -1.4000246E-07
  3.9149998E-03   -1.5914922E-07
  3.9499998E-03   -1.8168616E-07
  3.9849998E-03   -2.0697449E-07
  4.0199999E-03   -2.3446506E-07
  4.0549999E-03   -2.6563714E-07
  4.0899999E-03   -3.0109723E-07
  4.1250000E-03   -3.4000436E-07
  4.1600000E-03   -3.8348747E-07
  4.1950000E-03   -4.3289450E-07
  4.2300001E-03   -4.8731073E-07
  4.2650001E-03   -5.4719578E-07
  4.3000001E-03   -6.1461782E-07
  4.3350002E-03   -6.8972577E-07
  4.3700002E-03   -7.7266998E-07
  4.4049998E-03   -8.6462722E-07
  4.4399998E-03   -9.6563519E-07
  4.4749998E-03   -1.0769284E-06
  4.5099999E-03   -1.2006734E-06
  4.5449999E-03   -1.3362167E-06
  4.5799999E-03   -1.4842482E-06
  4.6150000E-03   -1.6482493E-06
  4.6500000E-03   -1.8278871E-06
  4.6850001E-03   -2.0226742E-06
  4.7200001E-03   -2.2370664E-06
  4.7550001E-03   -2.4724347E-06
  4.7900002E-03   -2.7271026E-06
  4.8250002E-03   -3.0042047E-06
  4.8600002E-03   -3.3063545E-06
  4.8949998E-03   -3.6333156E-06
  4.9299998E-03   -3.9884499E-06
  4.9649999E-03   -4.3737023E-06
  4.9999999E-03   -4.7879957E-06
  5.0349999E-03   -5.2358773E-06
  5.0700000E-03   -5.7212624E-06
  5.1050000E-03   -6.2421059E-06
  5.1400000E-03   -6.8013210E-06
  5.1750001E-03   -7.4037716E-06
  5.2100001E-03   -8.0483378E-06
  5.2450001E-03   -8.7379340E-06
  5.2800002E-03   -9.4778834E-06
  5.3150002E-03   -1.0266148E-05
  5.3500002E-03   -1.1104554E-05
  5.3849998E-03   -1.2000544E-05
  5.4199998E-03   -1.2953543E-05
  5.4549999E-03   -1.3963026E-05
  5.4899999E-03   -1.5035115E-05
  5.5249999E-03   -1.6170592E-05
  5.5600000E-03   -1.7369670E-05
  5.5950000E-03   -1.8638168E-05
  5.6300000E-03   -1.9975450E-05
  5.6650001E-03   -2.1379788E-05
  5.7000001E-03   -2.2858267E-05
  5.7350001E-03   -2.4412639E-05
  5.7700002E-03   -2.6039055E-05
  5.8050002E-03   -2.7741349E-05
  5.8400002E-03   -2.9521989E-05
  5.8749998E-03   -3.1378542E-05
  5.9099998E-03   -3.3314249E-05
  5.9449999E-03   -3.5329838E-05
  5.9799999E-03   -3.7420235E-05
  6.0149999E-03   -3.9588005E-05
  6.0500000E-03   -4.1836145E-05
  6.0850000E-03   -4.4158409E-05
  6.1200000E-03   -4.6552686E-05
  6.1550001E-03   -4.9021903E-05
  6.1900001E-03   -5.1562540E-05
  6.2250001E-03   -5.4170447E-05
  6.2600002E-03   -5.6844437E-05
  6.2950002E-03   -5.9579899E-05
  6.3299998E-03   -6.2373270E-05
  6.3649998E-03   -6.5223539E-05
  6.3999998E-03   -6.8124406E-05
  6.4349999E-03   -7.1068287E-05
  6.4699999E-03   -7.4052390E-05
  6.5049999E-03   -7.7072196E-05
  6.5400000E-03   -8.0119753E-05
  6.5750000E-03   -8.3189138E-05
  6.6100000E-03   -8.6274231E-05
  6.6450001E-03   -8.9366309E-05
  6.6800001E-03   -9.2458555E-05
  6.7150001E-03   -9.5545081E-05
  6.7500002E-03   -9.8615827E-05
  6.7850002E-03   -1.0166079E-04
  6.8199998E-03   -1.0467443E-04
  6.8549998E-03   -1.0764849E-04
  6.8899998E-03   -1.1057029E-04
  6.9249999E-03   -1.1343129E-04
  6.9599999E-03   -1.1622495E-04
  6.9949999E-03   -1.1893960E-04
  7.0300000E-03   -1.2156495E-04
  7.0650000E-03   -1.2409405E-04
  7.1000000E-03   -1.2651601E-04
  7.1350001E-03   -1.2882033E-04
  7.1700001E-03   -1.3100081E-04
  7.2050001E-03   -1.3304818E-04
  7.2400002E-03   -1.3495174E-04
  7.2750002E-03   -1.3670414E-04
  7.3099998E-03   -1.3829650E-04
  7.3449998E-03   -1.3972090E-04
  7.3799998E-03   -1.4097337E-04
  7.4149999E-03   -1.4204522E-04
  7.4499999E-03   -1.4292612E-04
  7.4850000E-03   -1.4361442E-04
  7.5200000E-03   -1.4410754E-04
  7.5550000E-03   -1.4439681E-04
  7.5900001E-03   -1.4447923E-04
  7.6250001E-03   -1.4435503E-04
  7.6600001E-03   -1.4401942E-04
  7.6950002E-03   -1.4347001E-04
  7.7300002E-03   -1.4270836E-04
  7.7650002E-03   -1.4173379E-04
  7.7999998E-03   -1.4054717E-04
  7.8349998E-03   -1.3915205E-04
  7.8699999E-03   -1.3754980E-04
  7.9049999E-03   -1.3574329E-04
  7.9399999E-03   -1.3373888E-04
  7.9750000E-03   -1.3154125E-04
  8.0100000E-03   -1.2915613E-04
  8.0450000E-03   -1.2659258E-04
  8.0800001E-03   -1.2385775E-04
  8.1150001E-03   -1.2095821E-04
  8.1500001E-03   -1.1790480E-04
  8.1850002E-03   -1.1470963E-04
  8.2200002E-03   -1.1138214E-04
  8.2550002E-03   -1.0793180E-04
  8.2900003E-03   -1.0437087E-04
  8.3250003E-03   -1.0071286E-04
  8.3600003E-03   -9.6970332E-05
  8.3950004E-03   -9.3156188E-05
  8.4300004E-03   -8.9284673E-05
  8.4650004E-03   -8.5369167E-05
  8.5000005E-03   -8.1422477E-05
  8.5349996E-03   -7.7459066E-05
  8.5699996E-03   -7.3493313E-05
  8.6049996E-03   -6.9538575E-05
  8.6399997E-03   -6.5608903E-05
  8.6749997E-03   -6.1717328E-05
  8.7099997E-03   -5.7876565E-05
  8.7449998E-03   -5.4101296E-05
  8.7799998E-03   -5.0403440E-05
  8.8149998E-03   -4.6791465E-05
  8.8499999E-03   -4.3277530E-05
  8.8849999E-03   -3.9875020E-05
  8.9199999E-03   -3.6592392E-05
  8.9550000E-03   -3.3438526E-05
  8.9900000E-03   -3.0423837E-05
  9.0250000E-03   -2.7554343E-05
  9.0600001E-03   -2.4835224E-05
  9.0950001E-03   -2.2273711E-05
  9.1300001E-03   -1.9874704E-05
  9.1650002E-03   -1.7642918E-05
  9.2000002E-03   -1.5583069E-05
  9.2350002E-03   -1.3693588E-05
  9.2700003E-03   -1.1973048E-05
  9.3050003E-03   -1.0427023E-05
  9.3400003E-03   -9.0567200E-06
  9.3750004E-03   -7.8556359E-06
  9.4100004E-03   -6.8212717E-06
  9.4450004E-03   -5.9537388E-06
  9.4799995E-03   -5.2481232E-06
  9.5149996E-03   -4.6988785E-06
  9.5499996E-03   -4.3021710E-06
  9.5849996E-03   -4.0519817E-06
  9.6199997E-03   -3.9409065E-06
  9.6549997E-03   -3.9609176E-06
  9.6899997E-03   -4.1044077E-06
  9.7249998E-03   -4.3664513E-06
  9.7599998E-03   -4.7390558E-06
  9.7949998E-03   -5.2096916E-06
  9.8299999E-03   -5.7718680E-06
  9.8649999E-03   -6.4219034E-06
  9.8999999E-03   -7.1462946E-06
  9.9350000E-03   -7.9314250E-06
  9.9700000E-03   -8.7748231E-06
  1.0005000E-02   -9.6720951E-06
  1.0040000E-02   -1.0609984E-05
  1.0075000E-02   -1.1578100E-05
  1.0110000E-02   -1.2571011E-05
  1.0145000E-02   -1.3581424E-05
  1.0180000E-02   -1.4601534E-05
  1.0215000E-02   -1.5624126E-05
  1.0250000E-02   -1.6641567E-05
  1.0285000E-02   -1.7647448E-05
  1.0320000E-02   -1.8636916E-05
  1.0355000E-02   -1.9604397E-05
  1.0390000E-02   -2.0543650E-05
  1.0425000E-02   -2.1448379E-05
  1.0460000E-02   -2.2313949E-05
  1.0495000E-02   -2.3137653E-05
  1.0530000E-02   -2.3916753E-05
  1.0565000E-02   -2.4644674E-05
  1.0600000E-02   -2.5312631E-05
  1.0635000E-02   -2.5918887E-05
  1.0670000E-02   -2.6467174E-05
  1.0705000E-02   -2.6951309E-05
  1.0740000E-02   -2.7359774E-05
  1.0775000E-02   -2.7691407E-05
  1.0810000E-02   -2.7947384E-05
  1.0845000E-02   -2.8123579E-05
  1.0880000E-02   -2.8218608E-05
  1.0915000E-02   -2.8226390E-05
  1.0950000E-02   -2.8134351E-05
  1.0985000E-02   -2.7944534E-05
  1.1020000E-02   -2.7663535E-05
  1.1055000E-02   -2.7279189E-05
  1.1090000E-02   -2.6781097E-05
  1.1125000E-02   -2.6171625E-05
  1.1160000E-02   -2.5446534E-05
  1.1195000E-02   -2.4601888E-05
  1.1230000E-02   -2.3640432E-05
  1.1265000E-02   -2.2551596E-05
  1.1300000E-02   -2.1322037E-05
  1.1335000E-02   -1.9957621E-05
  1.1370000E-02   -1.8463514E-05
  1.1405000E-02   -1.6831340E-05
  1.1440000E-02   -1.5055462E-05
  1.1475000E-02   -1.3134050E-05
  1.1510000E-02   -1.1067287E-05
  1.1545000E-02   -8.8571724E-06
  1.1580000E-02   -6.5005993E-06
  1.1615000E-02   -3.9956913E-06
  1.1650000E-02   -1.3514089E-06
  1.1685000E-02    1.4291794E-06
  1.1720000E-02    4.3515192E-06
  1.1755000E-02    7.4086133E-06
  1.1790000E-02    1.0589630E-05
  1.1825000E-02    1.3892432E-05
  1.1860000E-02    1.7309876E-05
  1.1895000E-02    2.0830230E-05
  1.1930000E-02    2.4446055E-05
  1.1965000E-02    2.8149372E-05
  1.2000000E-02    3.1925952E-05
  1.2035000E-02    3.5762740E-05
  1.2070000E-02    3.9648359E-05
  1.2105000E-02    4.3570290E-05
  1.2140000E-02    4.7511661E-05
  1.2175000E-02    5.1453520E-05
  1.2210000E-02    5.5383156E-05
  1.2245000E-02    5.9288570E-05
  1.2280000E-02    6.3148873E-05
  1.2315000E-02    6.6943074E-05
  1.2350000E-02    7.0658942E-05
  1.2385000E-02    7.4279029E-05
  1.2420000E-02    7.7780671E-05
  1.2455000E-02    8.1150909E-05
  1.2490000E-02    8.4379957E-05
  1.2525000E-02    8.7447130E-05
  1.2560000E-02    9.0332083E-05
  1.2595000E-02    9.3022594E-05
  1.2630000E-02    9.5508498E-05
  1.2665000E-02    9.7776880E-05
  1.2700000E-02    9.9814519E-05
  1.2735000E-02    1.0161028E-04
  1.2770000E-02    1.0315785E-04
  1.2805000E-02    1.0445017E-04
  1.2840000E-02    1.0547666E-04
  1.2875000E-02    1.0623425E-04
  1.2910000E-02    1.0672550E-04
  1.2945000E-02    1.0694559E-04
  1.2980000E-02    1.0688944E-04
  1.3015000E-02    1.0656378E-04
  1.3050000E-02    1.0597567E-04
  1.3085000E-02    1.0512344E-04
  1.3120000E-02    1.0401063E-04
  1.3155000E-02    1.0264932E-04
  1.3190000E-02    1.0104822E-04
  1.3225000E-02    9.9217345E-05
  1.3260000E-02    9.7170196E-05
  1.3295000E-02    9.4913521E-05
  1.3330000E-02    9.2456306E-05
  1.3365000E-02    8.9824331E-05
  1.3400000E-02    8.7036111E-05
  1.3435000E-02    8.4093670E-05
  1.3470000E-02    8.1010447E-05
  1.3505000E-02    7.7815108E-05
  1.3540000E-02    7.4524934E-05
  1.3575000E-02    7.1147544E-05
  1.3610000E-02    6.7699439E-05
  1.3645000E-02    6.4201326E-05
  1.3680000E-02    6.0667659E-05
  1.3715000E-02    5.7115991E-05
  1.3750000E-02    5.3562326E-05
  1.3785000E-02    5.0017621E-05
  1.3820000E-02    4.6502610E-05
  1.3855000E-02    4.3030908E-05
  1.3890000E-02    3.9606075E-05
  1.3925000E-02    3.6242447E-05
  1.3960000E-02    3.2956283E-05
  1.3995000E-02    2.9750707E-05
  1.4030000E-02    2.6636733E-05
  1.4065000E-02    2.3626075E-05
  1.4100000E-02    2.0725260E-05
  1.4135000E-02    1.7939617E-05
  1.4170000E-02    1.5269099E-05
  1.4205000E-02    1.2715775E-05
  1.4240000E-02    1.0290772E-05
  1.4275000E-02    7.9954762E-06
  1.4310000E-02    5.8183346E-06
  1.4345000E-02    3.7633604E-06
  1.4380000E-02    1.8421424E-06
  1.4415000E-02    4.3723016E-08
  1.4450000E-02   -1.6421477E-06
  1.4485000E-02   -3.2110008E-06
  1.4520000E-02   -4.6699461E-06
  1.4555000E-02   -6.0268039E-06
  1.4590000E-02   -7.2722351E-06
  1.4625000E-02   -8.4120320E-06
  1.4660000E-02   -9.4739780E-06
  1.4695000E-02   -1.0465531E-05
  1.4730000E-02   -1.1372386E-05
  1.4765000E-02   -1.2199853E-05
  1.4800000E-02   -1.2968938E-05
  1.4835000E-02   -1.3684021E-05
  1.4870000E-02   -1.4342654E-05
  1.4905000E-02   -1.4955048E-05
  1.4940000E-02   -1.5530974E-05
  1.4975000E-02   -1.6072499E-05
  1.5010000E-02   -1.6587583E-05
  1.5045000E-02   -1.7085593E-05
  1.5080000E-02   -1.7567023E-05
  1.5115000E-02   -1.8030090E-05
  1.5150000E-02   -1.8477247E-05
  1.5185000E-02   -1.8917533E-05
  1.5220000E-02   -1.9359824E-05
  1.5255000E-02   -1.9801817E-05
  1.5290000E-02   -2.0241565E-05
  1.5325000E-02   -2.0684358E-05
  1.5360000E-02   -2.1127178E-05
  1.5395000E-02   -2.1567215E-05
  1.5430000E-02   -2.2014368E-05
  1.5465000E-02   -2.2468197E-05
  1.5500000E-02   -2.2917577E-05
  1.5535000E-02   -2.3363275E-05
  1.5570000E-02   -2.3808179E-05
  1.5605000E-02   -2.4249775E-05
  1.5640000E-02   -2.4687408E-05
  1.5675001E-02   -2.5114981E-05
  1.5710000E-02   -2.5526584E-05
  1.5745001E-02   -2.5928144E-05
  1.5780000E-02   -2.6315736E-05
  1.5814999E-02   -2.6679256E-05
  1.5850000E-02   -2.7026928E-05
  1.5884999E-02   -2.7360556E-05
  1.5920000E-02   -2.7662836E-05
  1.5954999E-02   -2.7932392E-05
  1.5990000E-02   -2.8177150E-05
  1.6024999E-02   -2.8390803E-05
  1.6060000E-02   -2.8572495E-05
  1.6094999E-02   -2.8727394E-05
  1.6130000E-02   -2.8850322E-05
  1.6164999E-02   -2.8940643E-05
  1.6200000E-02   -2.9003497E-05
  1.6235000E-02   -2.9032919E-05
  1.6270000E-02   -2.9024168E-05
  1.6305000E-02   -2.8985838E-05
  1.6340001E-02   -2.8927190E-05
  1.6375000E-02   -2.8847935E-05
  1.6410001E-02   -2.8742286E-05
  1.6445000E-02   -2.8612052E-05
  1.6480001E-02   -2.8465425E-05
  1.6515000E-02   -2.8302093E-05
  1.6550001E-02   -2.8124150E-05
  1.6585000E-02   -2.7943272E-05
  1.6620001E-02   -2.7757971E-05
  1.6655000E-02   -2.7563785E-05
  1.6690001E-02   -2.7376900E-05
  1.6725000E-02   -2.7201851E-05
  1.6759999E-02   -2.7024113E-05
  1.6795000E-02   -2.6853269E-05
  1.6829999E-02   -2.6706228E-05
  1.6865000E-02   -2.6574909E-05
  1.6899999E-02   -2.6458365E-05
  1.6935000E-02   -2.6368341E-05
  1.6969999E-02   -2.6299447E-05
  1.7005000E-02   -2.6249569E-05
  1.7039999E-02   -2.6233138E-05
  1.7075000E-02   -2.6251015E-05
  1.7109999E-02   -2.6295376E-05
  1.7145000E-02   -2.6369022E-05
  1.7180000E-02   -2.6470094E-05
  1.7215000E-02   -2.6593849E-05
  1.7250000E-02   -2.6749551E-05
  1.7285001E-02   -2.6941128E-05
  1.7320000E-02   -2.7154900E-05
  1.7355001E-02   -2.7386513E-05
  1.7390000E-02   -2.7643238E-05
  1.7425001E-02   -2.7919787E-05
  1.7460000E-02   -2.8208311E-05
  1.7495001E-02   -2.8514178E-05
  1.7530000E-02   -2.8834920E-05
  1.7565001E-02   -2.9156266E-05
  1.7600000E-02   -2.9479010E-05
  1.7635001E-02   -2.9808876E-05
  1.7670000E-02   -3.0132029E-05
  1.7704999E-02   -3.0437895E-05
  1.7740000E-02   -3.0734405E-05
  1.7774999E-02   -3.1022282E-05
  1.7810000E-02   -3.1291260E-05
  1.7844999E-02   -3.1536256E-05
  1.7880000E-02   -3.1754276E-05
  1.7914999E-02   -3.1943069E-05
  1.7950000E-02   -3.2102078E-05
  1.7984999E-02   -3.2225402E-05
  1.8020000E-02   -3.2309847E-05
  1.8054999E-02   -3.2358887E-05
  1.8090000E-02   -3.2368116E-05
  1.8124999E-02   -3.2331605E-05
  1.8160000E-02   -3.2253294E-05
  1.8195000E-02   -3.2134994E-05
  1.8230001E-02   -3.1976120E-05
  1.8265000E-02   -3.1777199E-05
  1.8300001E-02   -3.1532079E-05
  1.8335000E-02   -3.1240310E-05
  1.8370001E-02   -3.0912157E-05
  1.8405000E-02   -3.0549054E-05
  1.8440001E-02   -3.0150033E-05
  1.8475000E-02   -2.9721134E-05
  1.8510001E-02   -2.9260593E-05
  1.8545000E-02   -2.8767970E-05
  1.8580001E-02   -2.8252452E-05
  1.8615000E-02   -2.7714681E-05
  1.8650001E-02   -2.7156557E-05
  1.8685000E-02   -2.6590833E-05
  1.8719999E-02   -2.6016252E-05
  1.8755000E-02   -2.5426858E-05
  1.8789999E-02   -2.4834178E-05
  1.8825000E-02   -2.4244528E-05
  1.8859999E-02   -2.3654764E-05
  1.8895000E-02   -2.3070281E-05
  1.8929999E-02   -2.2492535E-05
  1.8965000E-02   -2.1921289E-05
  1.8999999E-02   -2.1368920E-05
  1.9035000E-02   -2.0838252E-05
  1.9069999E-02   -2.0321040E-05
  1.9105000E-02   -1.9822992E-05
  1.9140000E-02   -1.9348072E-05
  1.9175000E-02   -1.8887315E-05
  1.9210000E-02   -1.8444860E-05
  1.9245001E-02   -1.8034307E-05
  1.9280000E-02   -1.7653010E-05
  1.9315001E-02   -1.7290116E-05
  1.9350000E-02   -1.6944912E-05
  1.9385001E-02   -1.6622645E-05
  1.9420000E-02   -1.6321992E-05
  1.9455001E-02   -1.6038315E-05
  1.9490000E-02   -1.5774995E-05
  1.9525001E-02   -1.5533740E-05
  1.9560000E-02   -1.5305481E-05
  1.9595001E-02   -1.5086392E-05
  1.9630000E-02   -1.4881472E-05
  1.9664999E-02   -1.4690409E-05
  1.9700000E-02   -1.4509373E-05
  1.9734999E-02   -1.4332996E-05
  1.9770000E-02   -1.4155367E-05
  1.9804999E-02   -1.3981377E-05
  1.9840000E-02   -1.3814636E-05
  1.9874999E-02   -1.3644538E-05
  1.9910000E-02   -1.3470493E-05
  1.9944999E-02   -1.3299974E-05
  1.9980000E-02   -1.3122711E-05
  2.0014999E-02   -1.2931716E-05
  2.0050000E-02   -1.2735590E-05
  2.0085000E-02   -1.2532107E-05
  2.0120000E-02   -1.2317523E-05
  2.0155000E-02   -1.2100564E-05
  2.0190001E-02   -1.1875615E-05
  2.0225000E-02   -1.1627863E-05
  2.0260001E-02   -1.1362624E-05
  2.0295000E-02   -1.1089379E-05
  2.0330001E-02   -1.0804593E-05
  2.0365000E-02   -1.0505535E-05
  2.0400001E-02   -1.0192573E-05
  2.0435000E-02   -9.8644396E-06
  2.0470001E-02   -9.5190953E-06
  2.0505000E-02   -9.1524435E-06
  2.0540001E-02   -8.7665157E-06
  2.0575000E-02   -8.3716268E-06
  2.0609999E-02   -7.9670581E-06
  2.0645000E-02   -7.5397329E-06
  2.0679999E-02   -7.0856481E-06
  2.0715000E-02   -6.6132393E-06
  2.0749999E-02   -6.1296601E-06
  2.0785000E-02   -5.6336494E-06
  2.0819999E-02   -5.1186908E-06
  2.0855000E-02   -4.5813231E-06
  2.0889999E-02   -4.0244913E-06
  2.0925000E-02   -3.4536383E-06
  2.0959999E-02   -2.8698773E-06
  2.0995000E-02   -2.2687341E-06
  2.1029999E-02   -1.6506200E-06
  2.1065000E-02   -1.0235005E-06
  2.1100000E-02   -3.8767107E-07
  2.1135001E-02    2.6248239E-07
  2.1170000E-02    9.2210342E-07
  2.1205001E-02    1.5840720E-06
  2.1240000E-02    2.2490558E-06
  2.1275001E-02    2.9159082E-06
  2.1310000E-02    3.5815708E-06
  2.1345001E-02    4.2415604E-06
  2.1380000E-02    4.8887237E-06
  2.1415001E-02    5.5271007E-06
  2.1450000E-02    6.1609276E-06
  2.1485001E-02    6.7728347E-06
  2.1520000E-02    7.3551355E-06
  2.1555001E-02    7.9206548E-06
  2.1590000E-02    8.4589037E-06
  2.1624999E-02    8.9542482E-06
  2.1660000E-02    9.4217348E-06
  2.1694999E-02    9.8624587E-06
  2.1730000E-02    1.0254247E-05
  2.1764999E-02    1.0600582E-05
  2.1800000E-02    1.0906683E-05
  2.1834999E-02    1.1155420E-05
  2.1870000E-02    1.1352705E-05
  2.1904999E-02    1.1514445E-05
  2.1940000E-02    1.1623279E-05
  2.1974999E-02    1.1667546E-05
  2.2010000E-02    1.1662411E-05
  2.2045000E-02    1.1609314E-05
  2.2080000E-02    1.1500765E-05
  2.2115000E-02    1.1344158E-05
  2.2150001E-02    1.1141209E-05
  2.2185000E-02    1.0886512E-05
  2.2220001E-02    1.0588279E-05
  2.2255000E-02    1.0254805E-05
  2.2290001E-02    9.8821838E-06
  2.2325000E-02    9.4711404E-06
  2.2360001E-02    9.0290141E-06
  2.2395000E-02    8.5572901E-06
  2.2430001E-02    8.0611253E-06
  2.2465000E-02    7.5561493E-06
  2.2500001E-02    7.0456326E-06
  2.2535000E-02    6.5180629E-06
  2.2569999E-02    5.9787258E-06
  2.2605000E-02    5.4437724E-06
  2.2639999E-02    4.9134665E-06
  2.2675000E-02    4.3903938E-06
  2.2709999E-02    3.8893381E-06
  2.2745000E-02    3.4085597E-06
  2.2779999E-02    2.9408368E-06
  2.2815000E-02    2.4997903E-06
  2.2849999E-02    2.0915631E-06
  2.2885000E-02    1.7065073E-06
  2.2919999E-02    1.3539277E-06
  2.2955000E-02    1.0469162E-06
  2.2990000E-02    7.7350472E-07
  2.3025000E-02    5.2772589E-07
  2.3060000E-02    3.2364250E-07
  2.3095001E-02    1.6434036E-07
  2.3130000E-02    4.3131173E-08
  2.3165001E-02   -3.8467693E-08
  2.3200000E-02   -8.1540989E-08
  2.3235001E-02   -9.2630742E-08
  2.3270000E-02   -7.1446983E-08
  2.3305001E-02   -1.4809505E-08
  2.3340000E-02    7.8144467E-08
  2.3375001E-02    2.0726320E-07
  2.3410000E-02    3.6427488E-07
  2.3445001E-02    5.3847526E-07
  2.3480000E-02    7.3264567E-07
  2.3514999E-02    9.5435689E-07
  2.3550000E-02    1.1995439E-06
  2.3584999E-02    1.4601612E-06
  2.3620000E-02    1.7325892E-06
  2.3654999E-02    2.0127218E-06
  2.3690000E-02    2.2992610E-06
  2.3724999E-02    2.5984152E-06
  2.3760000E-02    2.9119603E-06
  2.3794999E-02    3.2300247E-06
  2.3830000E-02    3.5448775E-06
  2.3864999E-02    3.8606413E-06
  2.3900000E-02    4.1813560E-06
  2.3934999E-02    4.5024185E-06
  2.3970000E-02    4.8214442E-06
  2.4005000E-02    5.1412176E-06
  2.4040001E-02    5.4589441E-06
  2.4075000E-02    5.7718421E-06
  2.4110001E-02    6.0847542E-06
  2.4145000E-02    6.3990074E-06
  2.4180001E-02    6.7109063E-06
  2.4215000E-02    7.0215510E-06
  2.4250001E-02    7.3304882E-06
  2.4285000E-02    7.6336510E-06
  2.4320001E-02    7.9347865E-06
  2.4355000E-02    8.2411252E-06
  2.4390001E-02    8.5496713E-06
  2.4425000E-02    8.8533325E-06
  2.4460001E-02    9.1539678E-06
  2.4495000E-02    9.4580091E-06
  2.4529999E-02    9.7625225E-06
  2.4565000E-02    1.0060180E-05
  2.4599999E-02    1.0354413E-05
  2.4635000E-02    1.0650285E-05
  2.4669999E-02    1.0945520E-05
  2.4705000E-02    1.1241393E-05
  2.4739999E-02    1.1535327E-05
  2.4775000E-02    1.1814947E-05
  2.4809999E-02    1.2082544E-05
  2.4845000E-02    1.2350406E-05
  2.4879999E-02    1.2614270E-05
  2.4915000E-02    1.2868129E-05
  2.4950000E-02    1.3114169E-05
  2.4985000E-02    1.3346181E-05
  2.5020000E-02    1.3561837E-05
  2.5055001E-02    1.3768959E-05
  2.5090000E-02    1.3964344E-05
  2.5125001E-02    1.4144102E-05
  2.5160000E-02    1.4314771E-05
  2.5195001E-02    1.4470833E-05
  2.5230000E-02    1.4601873E-05
  2.5265001E-02    1.4715946E-05
  2.5300000E-02    1.4821505E-05
  2.5335001E-02    1.4913177E-05
  2.5370000E-02    1.4988679E-05
  2.5405001E-02    1.5051742E-05
  2.5440000E-02    1.5100433E-05
  2.5474999E-02    1.5130636E-05
  2.5510000E-02    1.5148539E-05
  2.5544999E-02    1.5163265E-05
  2.5580000E-02    1.5170765E-05
  2.5614999E-02    1.5165710E-05
  2.5650000E-02    1.5155215E-05
  2.5684999E-02    1.5141644E-05
  2.5720000E-02    1.5122666E-05
  2.5754999E-02    1.5105674E-05
  2.5790000E-02    1.5090470E-05
  2.5824999E-02    1.5070124E-05
  2.5860000E-02    1.5054874E-05
  2.5895000E-02    1.5050414E-05
  2.5930000E-02    1.5046078E-05
  2.5965000E-02    1.5048740E-05
  2.6000001E-02    1.5070170E-05
  2.6035000E-02    1.5096734E-05
  2.6070001E-02    1.5122223E-05
  2.6105000E-02    1.5163944E-05
  2.6140001E-02    1.5226654E-05
  2.6175000E-02    1.5299642E-05
  2.6210001E-02    1.5381958E-05
  2.6245000E-02    1.5476839E-05
  2.6280001E-02    1.5578591E-05
  2.6315000E-02    1.5684716E-05
  2.6350001E-02    1.5806188E-05
  2.6385000E-02    1.5947624E-05
  2.6419999E-02    1.6095095E-05
  2.6455000E-02    1.6242207E-05
  2.6489999E-02    1.6398877E-05
  2.6525000E-02    1.6564214E-05
  2.6559999E-02    1.6728094E-05
  2.6595000E-02    1.6892100E-05
  2.6629999E-02    1.7060662E-05
  2.6665000E-02    1.7230406E-05
  2.6699999E-02    1.7396211E-05
  2.6735000E-02    1.7554812E-05
  2.6769999E-02    1.7707715E-05
  2.6805000E-02    1.7857958E-05
  2.6839999E-02    1.8000763E-05
  2.6875000E-02    1.8131883E-05
  2.6910000E-02    1.8253826E-05
  2.6945001E-02    1.8367018E-05
  2.6980000E-02    1.8469380E-05