 -4.8000002E-03    1.0000000E-24
 -4.7650002E-03    1.0000002E-24
 -4.7300002E-03    1.0000001E-24
 -4.6950001E-03    1.0000001E-24
 -4.6600001E-03    1.0000002E-24
 -4.6250001E-03    1.0000000E-24
 -4.5900000E-03    9.9999992E-25
 -4.5550000E-03    1.0000002E-24
 -4.5200000E-03    1.0000000E-24
 -4.4849999E-03    9.9999953E-25
 -4.4499999E-03    1.0000001E-24
 -4.4149999E-03    1.0000006E-24
 -4.3799998E-03    1.0000004E-24
 -4.3449998E-03    1.0000000E-24
 -4.3100002E-03    9.9999982E-25
 -4.2750002E-03    1.0000002E-24
 -4.2400002E-03    1.0000002E-24
 -4.2050001E-03    9.9999982E-25
 -4.1700001E-03    9.9999972E-25
 -4.1350001E-03    1.0000004E-24
 -4.1000000E-03    1.0000008E-24
 -4.0650000E-03    1.0000002E-24
 -4.0300000E-03    9.9999963E-25
 -3.9949999E-03    9.9999953E-25
 -3.9599999E-03    1.0000000E-24
 -3.9249999E-03    1.0000003E-24
 -3.8900001E-03    9.9999982E-25
 -3.8550000E-03    9.9999972E-25
 -3.8200000E-03    1.0000005E-24
 -3.7849999E-03    1.0000008E-24
 -3.7499999E-03    9.9999972E-25
 -3.7150001E-03    9.9999903E-25
 -3.6800001E-03    1.0000001E-24
 -3.6450000E-03    1.0000008E-24
 -3.6100000E-03    1.0000001E-24
 -3.5750000E-03    9.9999972E-25
 -3.5399999E-03    1.0000004E-24
 -3.5049999E-03    1.0000006E-24
 -3.4700001E-03    9.9999982E-25
 -3.4350001E-03    9.9999933E-25
 -3.4000000E-03    9.9999972E-25
 -3.3650000E-03    1.0000002E-24
 -3.3300000E-03    1.0000005E-24
 -3.2949999E-03    1.0000004E-24
 -3.2599999E-03    9.9999982E-25
 -3.2250001E-03    9.9999963E-25
 -3.1900001E-03    1.0000005E-24
 -3.1550000E-03    1.0000006E-24
 -3.1200000E-03    9.9999923E-25
 -3.0850000E-03    9.9999953E-25
 -3.0499999E-03    1.0000010E-24
 -3.0149999E-03    1.0000008E-24
 -2.9800001E-03    9.9999963E-25
 -2.9450001E-03    9.9999982E-25
 -2.9100000E-03    1.0000005E-24
 -2.8750000E-03    9.9999972E-25
 -2.8400000E-03    9.9999923E-25
 -2.8049999E-03    9.9999963E-25
 -2.7699999E-03    1.0000007E-24
 -2.7350001E-03    1.0000007E-24
 -2.7000001E-03    1.0000001E-24
 -2.6650000E-03    9.9999972E-25
 -2.6300000E-03    9.9999953E-25
 -2.5950000E-03    9.9999972E-25
 -2.5599999E-03    1.0000003E-24
 -2.5249999E-03    1.0000007E-24
 -2.4900001E-03    1.0000004E-24
 -2.4550001E-03    9.9999992E-25
 -2.4200000E-03    1.0000005E-24
 -2.3850000E-03    1.0000009E-24
 -2.3500000E-03    9.9999963E-25
 -2.3149999E-03    9.9999884E-25
 -2.2799999E-03    1.0000002E-24
 -2.2450001E-03    1.0000008E-24
 -2.2100001E-03    9.9999923E-25
 -2.1750000E-03    9.9999903E-25
 -2.1400000E-03    1.0000004E-24
 -2.1050000E-03    1.0000001E-24
 -2.0699999E-03    9.9999943E-25
 -2.0349999E-03    1.0000006E-24
 -2.0000001E-03    1.0000015E-24
 -1.9650001E-03    1.0000002E-24
 -1.9300000E-03    9.9999953E-25
 -1.8950000E-03    1.0000004E-24
 -1.8600000E-03    1.0000000E-24
 -1.8250000E-03    9.9999943E-25
 -1.7900000E-03    1.0000000E-24
 -1.7550000E-03    1.0000005E-24
 -1.7199999E-03    1.0000006E-24
 -1.6850000E-03    1.0000004E-24
 -1.6500000E-03    9.9999982E-25
 -1.6150000E-03    9.9999933E-25
 -1.5800000E-03    9.9999972E-25
 -1.5450000E-03    9.9999943E-25
 -1.5100000E-03    9.9999972E-25
 -1.4750001E-03    1.0000008E-24
 -1.4400000E-03    1.0000005E-24
 -1.4050000E-03    9.9999943E-25
 -1.3700000E-03    1.0000001E-24
 -1.3350000E-03    1.0000006E-24
 -1.3000000E-03    9.9999943E-25
 -1.2650000E-03    9.9999992E-25
 -1.2300001E-03    1.0000015E-24
 -1.1950000E-03    1.0000000E-24
 -1.1600000E-03    9.9999933E-25
 -1.1250000E-03    1.0000014E-24
 -1.0900000E-03    1.0000007E-24
 -1.0550000E-03    9.9999824E-25
 -1.0200000E-03    1.0000000E-24
 -9.8500005E-04    1.0000019E-24
 -9.5000002E-04    9.9999992E-25
 -9.1499998E-04    9.9999844E-25
 -8.8000001E-04    9.9999992E-25
 -8.4499997E-04    1.0000004E-24
 -8.1000000E-04    9.9999963E-25
 -7.7500002E-04    1.0000000E-24
 -7.3999999E-04    1.0000012E-24
 -7.0500001E-04    1.0000007E-24
 -6.6999998E-04    9.9999933E-25
 -6.3500000E-04    9.9999963E-25
 -6.0000003E-04    1.0000001E-24
 -5.6499999E-04    9.9999972E-25
 -5.3000002E-04    1.0000002E-24
 -4.9499999E-04    1.0000007E-24
 -4.6000001E-04    1.0000001E-24
 -4.2500001E-04    9.9999953E-25
 -3.9000000E-04    9.9999982E-25
 -3.5500000E-04    1.0000004E-24
 -3.1999999E-04    1.0000008E-24
 -2.8499999E-04    1.0000004E-24
 -2.5000001E-04    9.9999963E-25
 -2.1499999E-04    1.0000003E-24
 -1.8000000E-04    1.0000011E-24
 -1.4500000E-04    9.9999943E-25
 -1.1000000E-04    9.9999864E-25
 -7.5000004E-05    1.0000007E-24
 -3.9999999E-05    1.0000009E-24
 -4.9999999E-06    9.9999923E-25
  2.9999999E-05    9.9999963E-25
  6.5000000E-05    1.0000008E-24
  9.9999997E-05    1.0000004E-24
  1.3499999E-04    1.0000005E-24
  1.7000000E-04    1.0000002E-24
  2.0500000E-04    9.9999854E-25
  2.3999999E-04    9.9999933E-25
  2.7500000E-04    1.0000014E-24
  3.1000000E-04    1.0000001E-24
  3.4500001E-04    9.9999884E-25
  3.8000001E-04    1.0000003E-24
  4.1499999E-04    1.0000013E-24
  4.4999999E-04    9.9999963E-25
  4.8500000E-04    9.9999884E-25
  5.2000000E-04    1.0000008E-24
  5.5499998E-04    1.0000009E-24
  5.9000001E-04    9.9999953E-25
  6.2499999E-04    9.9999992E-25
  6.6000002E-04    1.0000006E-24
  6.9500000E-04    1.0000000E-24
  7.3000003E-04    9.9999972E-25
  7.6500000E-04    1.0000009E-24
  7.9999998E-04    1.0000005E-24
  8.3500001E-04    9.9999844E-25
  8.6999999E-04    9.9999903E-25
  9.0500002E-04    1.0000016E-24
  9.4000000E-04    1.0000015E-24
  9.7499997E-04    9.9999864E-25
  1.0100000E-03    9.9999844E-25
  1.0450000E-03    1.0000014E-24
  1.0800000E-03    1.0000009E-24
  1.1150000E-03    9.9999824E-25
  1.1500000E-03    9.9999963E-25
  1.1849999E-03    1.0000016E-24
  1.2200000E-03    1.0000000E-24
  1.2550000E-03    9.9999943E-25
  1.2900000E-03    1.0000012E-24
  1.3250000E-03    1.0000010E-24
  1.3600000E-03    9.9999943E-25
  1.3950000E-03    9.9999953E-25
  1.4299999E-03    9.9999953E-25
  1.4650000E-03    9.9999972E-25
  1.5000000E-03    1.0000007E-24
  1.5350000E-03    1.0000002E-24
  1.5700000E-03    9.9999953E-25
  1.6050000E-03    1.0000010E-24
  1.6400000E-03    1.0000007E-24
  1.6749999E-03    9.9999893E-25
  1.7100000E-03    9.9999943E-25
  1.7450000E-03    1.0000001E-24
  1.7800000E-03    9.9999893E-25
  1.8150000E-03    9.9999982E-25
  1.8500000E-03    1.0000018E-24
  1.8850000E-03    1.0000010E-24
  1.9200000E-03    9.9999933E-25
  1.9550000E-03    1.0000005E-24
  1.9900000E-03    1.0000008E-24
  2.0250001E-03    9.9999874E-25
  2.0600001E-03    9.9999923E-25
  2.0949999E-03    1.0000016E-24
  2.1299999E-03    1.0000010E-24
  2.1650000E-03    9.9999913E-25
  2.2000000E-03    1.0000005E-24
  2.2350000E-03    1.0000017E-24
  2.2700001E-03    9.9999903E-25
  2.3050001E-03    9.9999765E-25
  2.3399999E-03    9.9999982E-25
  2.3749999E-03    1.0000009E-24
  2.4100000E-03    1.0000002E-24
  2.4450000E-03    1.0000002E-24
  2.4800000E-03    1.0000004E-24
  2.5150001E-03    9.9999972E-25
  2.5500001E-03    9.9999982E-25
  2.5849999E-03    1.0000002E-24
  2.6199999E-03    9.9999953E-25
  2.6550000E-03    9.9999963E-25
  2.6900000E-03    1.0000011E-24
  2.7250000E-03    1.0000009E-24
  2.7600001E-03    9.9999933E-25
  2.7950001E-03    9.9999913E-25
  2.8299999E-03    1.0000001E-24
  2.8649999E-03    1.0000004E-24
  2.9000000E-03    1.0000006E-24
  2.9350000E-03    1.0000006E-24
  2.9700000E-03    9.9999992E-25
  3.0050001E-03    9.9999913E-25
  3.0400001E-03    1.0000000E-24
  3.0749999E-03    1.0000007E-24
  3.1099999E-03    9.9999992E-25
  3.1450000E-03    1.0000007E-24
  3.1800000E-03    1.0000019E-24
  3.2150000E-03    1.0000003E-24
  3.2500001E-03    9.9999765E-25
  3.2850001E-03    9.9999775E-25
  3.3199999E-03    1.0000006E-24
  3.3549999E-03    1.0000017E-24
  3.3900000E-03    9.9999933E-25
  3.4250000E-03    9.9999884E-25
  3.4600000E-03    1.0000021E-24
  3.4950001E-03    1.0000016E-24
  3.5300001E-03    9.9999746E-25
  3.5649999E-03    9.9999824E-25
  3.5999999E-03    1.0000022E-24
  3.6350000E-03    1.0000010E-24
  3.6700000E-03    9.9999864E-25
  3.7050000E-03    1.0000004E-24
  3.7400001E-03    1.0000010E-24
  3.7750001E-03    9.9999963E-25
  3.8099999E-03    1.0000001E-24
  3.8449999E-03    9.9999992E-25
  3.8800000E-03    9.9999834E-25
  3.9149998E-03    1.0000000E-24
  3.9499998E-03    1.0000024E-24
  3.9849998E-03    1.0000003E-24
  4.0199999E-03    9.9999765E-25
  4.0549999E-03    9.9999953E-25
  4.0899999E-03    1.0000017E-24
  4.1250000E-03    1.0000009E-24
  4.1600000E-03    9.9999933E-25
  4.1950000E-03    1.0000002E-24
  4.2300001E-03    1.0000012E-24
  4.2650001E-03    1.0000000E-24
  4.3000001E-03    9.9999844E-25
  4.3350002E-03    1.0000004E-24
  4.3700002E-03    1.0000025E-24
  4.4049998E-03    9.9999992E-25
  4.4399998E-03    9.9999775E-25
  4.4749998E-03    1.0000001E-24
  4.5099999E-03    1.0000013E-24
  4.5449999E-03    9.9999933E-25
  4.5799999E-03    9.9999903E-25
  4.6150000E-03    9.9999992E-25
  4.6500000E-03    1.0000002E-24
  4.6850001E-03    1.0000009E-24
  4.7200001E-03    1.0000014E-24
  4.7550001E-03    1.0000009E-24
  4.7900002E-03    1.0000006E-24
  4.8250002E-03    1.0000008E-24
  4.8600002E-03    9.9999913E-25
  4.8949998E-03    9.9999775E-25
  4.9299998E-03    1.0000002E-24
  4.9649999E-03    1.0000023E-24
  4.9999999E-03    9.9999963E-25
  5.0349999E-03    9.9999785E-25
  5.0700000E-03    1.0000005E-24
  5.1050000E-03    1.0000010E-24
  5.1400000E-03    9.9999844E-25
  5.1750001E-03    9.9999923E-25
  5.2100001E-03    1.0000008E-24
  5.2450001E-03    9.9999992E-25
  5.2800002E-03    1.0000003E-24
  5.3150002E-03    1.0000017E-24
  5.3500002E-03    1.0000005E-24
  5.3849998E-03    9.9999992E-25
  5.4199998E-03    1.0000010E-24
  5.4549999E-03    9.9999982E-25
  5.4899999E-03    9.9999913E-25
  5.5249999E-03    1.0000009E-24
  5.5600000E-03    1.0000011E-24
  5.5950000E-03    9.9999992E-25
  5.6300000E-03    9.9999943E-25
  5.6650001E-03    9.9999884E-25
  5.7000001E-03    9.9999824E-25
  5.7350001E-03    1.0000002E-24
  5.7700002E-03    1.0000023E-24
  5.8050002E-03    1.0000008E-24
  5.8400002E-03    9.9999884E-25
  5.8749998E-03    1.0000003E-24
  5.9099998E-03    1.0000008E-24
  5.9449999E-03    9.9999893E-25
  5.9799999E-03    9.9999913E-25
  6.0149999E-03    1.0000013E-24
  6.0500000E-03    1.0000014E-24
  6.0850000E-03    9.9999982E-25
  6.1200000E-03    9.9999864E-25
  6.1550001E-03    9.9999923E-25
  6.1900001E-03    1.0000008E-24
  6.2250001E-03    1.0000008E-24
  6.2600002E-03    9.9999953E-25
  6.2950002E-03    1.0000012E-24
  6.3299998E-03    1.0000029E-24
  6.3649998E-03    9.9999913E-25
  6.3999998E-03    9.9999726E-25
  6.4349999E-03    1.0000008E-24
  6.4699999E-03    1.0000005E-24
  6.5049999E-03    9.9999785E-25
  6.5400000E-03    1.0000016E-24
  6.5750000E-03    1.0000035E-24
  6.6100000E-03    9.9999844E-25
  6.6450001E-03    9.9999805E-25
  6.6800001E-03    1.0000023E-24
  6.7150001E-03    1.0000007E-24
  6.7500002E-03    9.9999755E-25
  6.7850002E-03    1.0000004E-24
  6.8199998E-03    1.0000031E-24
  6.8549998E-03    9.9999972E-25
  6.8899998E-03    9.9999765E-25
  6.9249999E-03    1.0000001E-24
  6.9599999E-03    1.0000013E-24
  6.9949999E-03    9.9999953E-25
  7.0300000E-03    9.9999864E-25
  7.0650000E-03    9.9999953E-25
  7.1000000E-03    1.0000009E-24
  7.1350001E-03    1.0000010E-24
  7.1700001E-03    9.9999963E-25
  7.2050001E-03    9.9999923E-25
  7.2400002E-03    1.0000003E-24
  7.2750002E-03    1.0000006E-24
  7.3099998E-03    1.0000000E-24
  7.3449998E-03    1.0000001E-24
  7.3799998E-03    1.0000008E-24
  7.4149999E-03    9.9999963E-25
  7.4499999E-03    9.9999893E-25
  7.4850000E-03    1.0000001E-24
  7.5200000E-03    1.0000003E-24
  7.5550000E-03    9.9999923E-25
  7.5900001E-03    1.0000013E-24
  7.6250001E-03    9.9999992E-25
  7.6600001E-03    9.9999598E-25
  7.6950002E-03    9.9999943E-25
  7.7300002E-03    1.0000067E-24
  7.7650002E-03    1.0000012E-24
  7.7999998E-03    9.9998809E-25
  7.8349998E-03    9.9999312E-25
  7.8699999E-03    1.0000119E-24
  7.9049999E-03    1.0000059E-24
  7.9399999E-03    9.9997192E-25
  7.9750000E-03    9.9998178E-25
  8.0100000E-03    1.0000400E-24
  8.0450000E-03    1.0000359E-24
  8.0800001E-03    9.9995486E-25
  8.1150001E-03    9.9993543E-25
  8.1500001E-03    1.0000499E-24
  8.1850002E-03    1.0001031E-24
  8.2200002E-03    9.9997793E-25
  8.2550002E-03    9.9983643E-25
  8.2900003E-03    9.9999509E-25
  8.3250003E-03    1.0002193E-24
  8.3600003E-03    1.0000878E-24
  8.3950004E-03    9.9971721E-25
  8.4300004E-03    9.9976366E-25
  8.4650004E-03    1.0003943E-24
  8.5000005E-03    1.0003975E-24
  8.5349996E-03    9.9959888E-25
  8.5699996E-03    9.9910545E-25
  8.6049996E-03    1.0001472E-24
  8.6399997E-03    1.0012209E-24
  8.6749997E-03    9.9980310E-25
  8.7099997E-03    9.9772021E-25
  8.7449998E-03    9.9980271E-25
  8.7799998E-03    1.0027282E-24
  8.8149998E-03    1.0012741E-24
  8.8499999E-03    9.9598551E-25
  8.8849999E-03    9.9665693E-25
  8.9199999E-03    1.0052364E-24
  8.9550000E-03    1.0057403E-24
  8.9900000E-03    9.9456378E-25
  9.0250000E-03    9.8787681E-25
  9.0600001E-03    1.0028350E-24
  9.0950001E-03    1.0181212E-24
  9.1300001E-03    9.9808969E-25
  9.1650002E-03    9.7598709E-25
  9.2000002E-03    9.9054542E-25
  9.2350002E-03    1.0314177E-24
  9.2700003E-03    1.0233831E-24
  9.3050003E-03    9.5893803E-25
  9.3400003E-03    9.4635166E-25
  9.3750004E-03    1.0517861E-24
  9.4100004E-03    1.0818588E-24
  9.4450004E-03    9.5103858E-25
  9.4799995E-03    8.5744013E-25
  9.5149996E-03    9.9717619E-25
  9.5499996E-03    1.1999007E-24
  9.5849996E-03    1.0723606E-24
  9.6199997E-03    7.8599877E-25
  9.6549997E-03    8.1380237E-25
  9.6899997E-03    1.2379213E-24
  9.7249998E-03    1.3090164E-24
  9.7599998E-03    7.6335220E-25
  9.7949998E-03    4.7150063E-25
  9.8299999E-03    1.2066508E-24
  9.8649999E-03    1.8991467E-24
  9.8999999E-03    1.0545500E-24
  9.9350000E-03   -1.7758658E-25
  9.9700000E-03    8.0251643E-25
  1.0005000E-02    2.2789018E-24
  1.0040000E-02    1.7006256E-24
  1.0075000E-02   -2.0758606E-25
  1.0110000E-02   -7.9328365E-25
  1.0145000E-02    2.0888455E-24
  1.0180000E-02    4.0964143E-24
  1.0215000E-02    4.5870970E-25
  1.0250000E-02   -2.6321324E-24
  1.0285000E-02    5.9868666E-25
  1.0320000E-02    5.5892227E-24
  1.0355000E-02    3.3569270E-24
  1.0390000E-02   -3.2201823E-24
  1.0425000E-02   -5.3629068E-24
  1.0460000E-02    4.1090124E-24
  1.0495000E-02    1.3205943E-23
  1.0530000E-02    2.4921433E-24
  1.0565000E-02   -1.4144167E-23
  1.0600000E-02   -3.6673911E-24
  1.0635000E-02    2.0996996E-23
  1.0670000E-02    1.2652692E-23
  1.0705000E-02   -1.9765653E-23
  1.0740000E-02   -2.7616496E-23
  1.0775000E-02    1.5767228E-23
  1.0810000E-02    4.9403389E-23
  1.0845000E-02   -3.7755348E-24
  1.0880000E-02   -7.4819595E-23
  1.0915000E-02   -2.0938812E-23
  1.0950000E-02    7.6424270E-23
  1.0985000E-02    7.8353483E-23
  1.1020000E-02   -9.6260348E-23
  1.1055000E-02   -1.4098807E-22
  1.1090000E-02    9.7498715E-23
  1.1125000E-02    2.3151013E-22
  1.1160000E-02   -1.9007441E-23
  1.1195000E-02   -3.2104645E-22
  1.1230000E-02   -1.1248403E-22
  1.1265000E-02    3.5341630E-22
  1.1300000E-02    3.2781980E-22
  1.1335000E-02   -3.6791523E-22
  1.1370000E-02   -5.5956865E-22
  1.1405000E-02    3.3590662E-22
  1.1440000E-02    9.2467857E-22
  1.1475000E-02   -2.0696803E-22
  1.1510000E-02   -1.3653414E-21
  1.1545000E-02   -2.7255647E-22
  1.1580000E-02    1.5902736E-21
  1.1615000E-02    9.1069284E-22
  1.1650000E-02   -1.9756139E-21
  1.1685000E-02   -2.2791463E-21
  1.1720000E-02    1.6272306E-21
  1.1755000E-02    3.2464402E-21
  1.1790000E-02   -9.0992462E-22
  1.1825000E-02   -4.8958433E-21
  1.1860000E-02   -7.3371556E-22
  1.1895000E-02    6.2857725E-21
  1.1930000E-02    3.4730866E-21
  1.1965000E-02   -7.2626611E-21
  1.2000000E-02   -7.5449979E-21
  1.2035000E-02    7.2160054E-21
  1.2070000E-02    1.2580993E-20
  1.2105000E-02   -5.3993124E-21
  1.2140000E-02   -1.9212648E-20
  1.2175000E-02   -5.5758834E-22
  1.2210000E-02    2.5792456E-20
  1.2245000E-02    9.6059483E-21
  1.2280000E-02   -3.0047672E-20
  1.2315000E-02   -2.3862038E-20
  1.2350000E-02    2.9768476E-20
  1.2385000E-02    4.1176107E-20
  1.2420000E-02   -2.2987658E-20
  1.2455000E-02   -6.2171380E-20
  1.2490000E-02    4.9184317E-21
  1.2525000E-02    8.1709689E-20
  1.2560000E-02    2.4451312E-20
  1.2595000E-02   -9.9136718E-20
  1.2630000E-02   -7.0569350E-20
  1.2665000E-02    1.0421391E-19
  1.2700000E-02    1.3787125E-19
  1.2735000E-02   -8.7019717E-20
  1.2770000E-02   -2.1041744E-19
  1.2805000E-02    3.9352691E-20
  1.2840000E-02    2.8563188E-19
  1.2875000E-02    5.3741760E-20
  1.2910000E-02   -3.5337094E-19
  1.2945000E-02   -1.9384969E-19
  1.2980000E-02    3.6885969E-19
  1.3015000E-02    3.8046330E-19
  1.3050000E-02   -3.4835119E-19
  1.3085000E-02   -6.1494670E-19
  1.3120000E-02    2.0870369E-19
  1.3155000E-02    8.3987504E-19
  1.3190000E-02    3.7483738E-20
  1.3225000E-02   -1.0240848E-18
  1.3260000E-02   -4.1778230E-19
  1.3295000E-02    1.1461965E-18
  1.3330000E-02    9.3965484E-19
  1.3365000E-02   -1.0978356E-18
  1.3400000E-02   -1.6193277E-18
  1.3435000E-02    7.3534702E-19
  1.3470000E-02    2.2813832E-18
  1.3505000E-02   -9.9201664E-20
  1.3540000E-02   -2.9092300E-18
  1.3575000E-02   -9.6096270E-19
  1.3610000E-02    3.1957068E-18
  1.3645000E-02    2.3829570E-18
  1.3680000E-02   -3.1252583E-18
  1.3715000E-02   -4.1317961E-18
  1.3750000E-02    2.3005398E-18
  1.3785000E-02    5.9196246E-18
  1.3820000E-02   -7.3794044E-19
  1.3855000E-02   -7.5544007E-18
  1.3890000E-02   -2.0110862E-18
  1.3925000E-02    8.3717064E-18
  1.3960000E-02    5.4995570E-18
  1.3995000E-02   -8.2628602E-18
  1.4030000E-02   -9.7017698E-18
  1.4065000E-02    6.5865414E-18
  1.4100000E-02    1.4083749E-17
  1.4135000E-02   -2.7177290E-18
  1.4170000E-02   -1.7919831E-17
  1.4205000E-02   -3.2269488E-18
  1.4240000E-02    2.0323290E-17
  1.4275000E-02    1.1355406E-17
  1.4310000E-02   -1.9478062E-17
  1.4345000E-02   -2.0342424E-17
  1.4380000E-02    1.5881044E-17
  1.4415000E-02    3.0496101E-17
  1.4450000E-02   -7.4218168E-18
  1.4485000E-02   -3.8761369E-17
  1.4520000E-02   -5.6721929E-18
  1.4555000E-02    4.2660490E-17
  1.4590000E-02    2.2003494E-17
  1.4625000E-02   -4.0961362E-17
  1.4660000E-02   -4.0199429E-17
  1.4695000E-02    3.1930072E-17
  1.4730000E-02    5.7744327E-17
  1.4765000E-02   -1.5262197E-17
  1.4800000E-02   -7.2020571E-17
  1.4835000E-02   -1.0402281E-17
  1.4870000E-02    7.7281936E-17
  1.4905000E-02    4.0901792E-17
  1.4940000E-02   -7.2662192E-17
  1.4975000E-02   -7.1114941E-17
  1.5010000E-02    5.6278768E-17
  1.5045000E-02    9.8144159E-17
  1.5080000E-02   -2.5184028E-17
  1.5115000E-02   -1.1498446E-16
  1.5150000E-02   -1.5557016E-17
  1.5185000E-02    1.1536181E-16
  1.5220000E-02    5.8237433E-17
  1.5255000E-02   -9.7428549E-17
  1.5290000E-02   -9.6382006E-17
  1.5325000E-02    6.0619481E-17
  1.5360000E-02    1.1901052E-16
  1.5395000E-02   -1.1090381E-17
  1.5430000E-02   -1.1803662E-16
  1.5465000E-02   -3.8629603E-17
  1.5500000E-02    8.4736958E-17
  1.5535000E-02    6.8555717E-17
  1.5570000E-02   -3.1678665E-17
  1.5605000E-02   -6.8496173E-17
  1.5640000E-02   -3.3324433E-17
  1.5675001E-02    2.2663872E-17
  1.5710000E-02    8.3742905E-17
  1.5745001E-02    7.0071383E-17
  1.5780000E-02   -9.3906248E-17
  1.5814999E-02   -2.1035195E-16
  1.5850000E-02    1.9701492E-17
  1.5884999E-02    3.5080886E-16
  1.5920000E-02    1.6049764E-16
  1.5954999E-02   -4.4455534E-16
  1.5990000E-02   -4.5294446E-16
  1.6024999E-02    4.2647024E-16
  1.6060000E-02    8.3381415E-16
  1.6094999E-02   -2.2180307E-16
  1.6130000E-02   -1.2377185E-15
  1.6164999E-02   -2.2769622E-16
  1.6200000E-02    1.5606796E-15
  1.6235000E-02    9.5597303E-16
  1.6270000E-02   -1.6446503E-15
  1.6305000E-02   -1.9188911E-15
  1.6340001E-02    1.3399752E-15
  1.6375000E-02    3.0114512E-15
  1.6410001E-02   -4.9401264E-16
  1.6445000E-02   -4.0242332E-15
  1.6480001E-02   -9.7958354E-16
  1.6515000E-02    4.6751352E-15
  1.6550001E-02    3.0791208E-15
  1.6585000E-02   -4.6027292E-15
  1.6620001E-02   -5.6086058E-15
  1.6655000E-02    3.4953778E-15
  1.6690001E-02    8.2388667E-15
  1.6725000E-02   -1.0990548E-15
  1.6759999E-02   -1.0462848E-14
  1.6795000E-02   -2.6829997E-15
  1.6829999E-02    1.1618657E-14
  1.6865000E-02    7.6663588E-15
  1.6899999E-02   -1.1043495E-14
  1.6935000E-02   -1.3391526E-14
  1.6969999E-02    8.1061146E-15
  1.7005000E-02    1.9028875E-14
  1.7039999E-02   -2.4283615E-15
  1.7075000E-02   -2.3464168E-14
  1.7109999E-02   -5.9683246E-15
  1.7145000E-02    2.5427016E-14
  1.7180000E-02    1.6548888E-14
  1.7215000E-02   -2.3666224E-14
  1.7250000E-02   -2.8224629E-14
  1.7285001E-02    1.7153495E-14
  1.7320000E-02    3.9309596E-14
  1.7355001E-02   -5.3781569E-15
  1.7390000E-02   -4.7673359E-14
  1.7425001E-02   -1.1393728E-14
  1.7460000E-02    5.0983360E-14
  1.7495001E-02    3.1932268E-14
  1.7530000E-02   -4.7083309E-14
  1.7565001E-02   -5.4033875E-14
  1.7600000E-02    3.4361409E-14
  1.7635001E-02    7.4571398E-14
  1.7670000E-02   -1.2169622E-14
  1.7704999E-02   -8.9726491E-14
  1.7740000E-02   -1.8704891E-14
  1.7774999E-02    9.5515081E-14
  1.7810000E-02    5.5908220E-14
  1.7844999E-02   -8.8293935E-14
  1.7880000E-02   -9.5327582E-14
  1.7914999E-02    6.5568014E-14
  1.7950000E-02    1.3142693E-13
  1.7984999E-02   -2.6621004E-14
  1.8020000E-02   -1.5767243E-13
  1.8054999E-02   -2.6837641E-14
  1.8090000E-02    1.6737702E-13
  1.8124999E-02    9.0303626E-14
  1.8160000E-02   -1.5482517E-13
  1.8195000E-02   -1.5657976E-13
  1.8230001E-02    1.1632512E-13
  1.8265000E-02    2.1612531E-13
  1.8300001E-02   -5.1501026E-14
  1.8335000E-02   -2.5819733E-13
  1.8370001E-02   -3.5884456E-14
  1.8405000E-02    2.7228163E-13
  1.8440001E-02    1.3751272E-13
  1.8475000E-02   -2.4999320E-13
  1.8510001E-02   -2.4085072E-13
  1.8545000E-02    1.8708518E-13
  1.8580001E-02    3.3041191E-13
  1.8615000E-02   -8.5005957E-14
  1.8650001E-02   -3.8969018E-13
  1.8685000E-02   -4.7924758E-14
  1.8719999E-02    4.0406423E-13
  1.8755000E-02    1.9673664E-13
  1.8789999E-02   -3.6371378E-13
  1.8825000E-02   -3.4111142E-13
  1.8859999E-02    2.6642507E-13
  1.8895000E-02    4.5826597E-13
  1.8929999E-02   -1.1931698E-13
  1.8965000E-02   -5.2674553E-13
  1.8999999E-02   -6.0991536E-14
  1.9035000E-02    5.3074971E-13
  1.9069999E-02    2.5011349E-13
  1.9105000E-02   -4.6405121E-13
  1.9140000E-02   -4.1970567E-13
  1.9175000E-02    3.3247675E-13
  1.9210000E-02    5.4271518E-13
  1.9245001E-02   -1.5402824E-13
  1.9280000E-02   -5.9913581E-13
  1.9315001E-02   -4.3720365E-14
  1.9350000E-02    5.8096616E-13
  1.9385001E-02    2.2882420E-13
  1.9420000E-02   -4.9492447E-13
  1.9455001E-02   -3.7194610E-13
  1.9490000E-02    3.6199039E-13
  1.9525001E-02    4.5372554E-13
  1.9560000E-02   -2.1295186E-13
  1.9595001E-02   -4.7022548E-13
  1.9630000E-02    8.1056391E-14
  1.9664999E-02    4.3513904E-13
  1.9700000E-02    7.2375103E-15
  1.9734999E-02   -3.7732201E-13
  1.9770000E-02   -4.0894222E-14
  1.9804999E-02    3.3354190E-13
  1.9840000E-02    2.9844139E-14
  1.9874999E-02   -3.3762270E-13
  1.9910000E-02   -5.2958613E-15
  1.9944999E-02    4.0861287E-13
  1.9980000E-02    1.3925344E-14
  2.0014999E-02   -5.4052693E-13
  2.0050000E-02   -1.0581932E-13
  2.0085000E-02    6.9790235E-13
  2.0120000E-02    3.1940948E-13
  2.0155000E-02   -8.1813825E-13
  2.0190001E-02   -6.6544811E-13
  2.0225000E-02    8.2296138E-13
  2.0260001E-02    1.1160291E-12
  2.0295000E-02   -6.3594095E-13
  2.0330001E-02   -1.6007687E-12
  2.0365000E-02    2.0381763E-13
  2.0400001E-02    2.0134343E-12
  2.0435000E-02    4.8362453E-13
  2.0470001E-02   -2.2286741E-12
  2.0505000E-02   -1.3799779E-12
  2.0540001E-02    2.1266318E-12
  2.0575000E-02    2.3793751E-12
  2.0609999E-02   -1.6206584E-12
  2.0645000E-02   -3.3262791E-12
  2.0679999E-02    6.8214304E-13
  2.0715000E-02    4.0369496E-12
  2.0749999E-02    6.4263769E-13
  2.0785000E-02   -4.3296456E-12
  2.0819999E-02   -2.2281807E-12
  2.0855000E-02    4.0581444E-12
  2.0889999E-02    3.8796045E-12
  2.0925000E-02   -3.1420771E-12
  2.0959999E-02   -5.3552739E-12
  2.0995000E-02    1.5889670E-12
  2.1029999E-02    6.3986433E-12
  2.1065000E-02    4.9553027E-13
  2.1100000E-02   -6.7747474E-12
  2.1135001E-02   -2.9107396E-12
  2.1170000E-02    6.3062645E-12
  2.1205001E-02    5.3770261E-12
  2.1240000E-02   -4.9047507E-12
  2.1275001E-02   -7.5627985E-12
  2.1310000E-02    2.5938570E-12
  2.1345001E-02    9.1196642E-12
  2.1380000E-02    4.7707660E-13
  2.1415001E-02   -9.7239430E-12
  2.1450000E-02   -4.0313850E-12
  2.1485001E-02    9.1221978E-12
  2.1520000E-02    7.6765764E-12
  2.1555001E-02   -7.1791908E-12
  2.1590000E-02   -1.0934849E-11
  2.1624999E-02    3.9204252E-12
  2.1660000E-02    1.3290975E-11
  2.1694999E-02    4.3502067E-13
  2.1730000E-02   -1.4261057E-11
  2.1764999E-02   -5.4641487E-12
  2.1800000E-02    1.3474408E-11
  2.1834999E-02    1.0559935E-11
  2.1870000E-02   -1.0760407E-11
  2.1904999E-02   -1.4991560E-11
  2.1940000E-02    6.2210827E-12
  2.1974999E-02    1.8003687E-11
  2.2010000E-02   -2.6928622E-13
  2.2045000E-02   -1.8943775E-11
  2.2080000E-02   -6.3837360E-12
  2.2115000E-02    1.7399622E-11
  2.2150001E-02    1.2805689E-11
  2.2185000E-02   -1.3314825E-11
  2.2220001E-02   -1.7979852E-11
  2.2255000E-02    7.0522013E-12
  2.2290001E-02    2.0982882E-11
  2.2325000E-02    6.2018647E-13
  2.2360001E-02   -2.1168315E-11
  2.2395000E-02   -8.6289292E-12
  2.2430001E-02    1.8314936E-11
  2.2465000E-02    1.5768808E-11
  2.2500001E-02   -1.2703215E-11
  2.2535000E-02   -2.0921697E-11
  2.2569999E-02    5.0913444E-12
  2.2605000E-02    2.3271341E-11
  2.2639999E-02    3.4101086E-12
  2.2675000E-02   -2.2464428E-11
  2.2709999E-02   -1.1541307E-11
  2.2745000E-02    1.8678647E-11
  2.2779999E-02    1.8129855E-11
  2.2815000E-02   -1.2580562E-11
  2.2849999E-02   -2.2308454E-11
  2.2885000E-02    5.1801527E-12
  2.2919999E-02    2.3661312E-11
  2.2955000E-02    2.3824029E-12
  2.2990000E-02   -2.2263880E-11
  2.3025000E-02   -9.0597139E-12
  2.3060000E-02    1.8618993E-11
  2.3095001E-02    1.4083819E-11
  2.3130000E-02   -1.3505860E-11
  2.3165001E-02   -1.7073246E-11
  2.3200000E-02    7.7829253E-12
  2.3235001E-02    1.8037807E-11
  2.3270000E-02   -2.1959641E-12
  2.3305001E-02   -1.7279244E-11
  2.3340000E-02   -2.7404240E-12
  2.3375001E-02    1.5247021E-11
  2.3410000E-02    6.7808441E-12
  2.3445001E-02   -1.2387051E-11
  2.3480000E-02   -9.9078948E-12
  2.3514999E-02    9.0210096E-12
  2.3550000E-02    1.2227601E-11
  2.3584999E-02   -5.2824130E-12
  2.3620000E-02   -1.3810731E-11
  2.3654999E-02    1.1811467E-12
  2.3690000E-02    1.4600581E-11
  2.3724999E-02    3.2805310E-12
  2.3760000E-02   -1.4399829E-11
  2.3794999E-02   -7.9815295E-12
  2.3830000E-02    1.2953940E-11
  2.3864999E-02    1.2633947E-11
  2.3900000E-02   -1.0020155E-11
  2.3934999E-02   -1.6703734E-11
  2.3970000E-02    5.5770969E-12
  2.4005000E-02    1.9525956E-11
  2.4040001E-02    5.9060883E-14
  2.4075000E-02   -2.0492249E-11
  2.4110001E-02   -6.2050881E-12
  2.4145000E-02    1.9321506E-11
  2.4180001E-02    1.2066684E-11
  2.4215000E-02   -1.6025273E-11
  2.4250001E-02   -1.6761832E-11
  2.4285000E-02    1.1062741E-11
  2.4320001E-02    1.9630445E-11
  2.4355000E-02   -5.1840194E-12
  2.4390001E-02   -2.0321160E-11
  2.4425000E-02   -6.3742094E-13
  2.4460001E-02    1.9093243E-11
  2.4495000E-02    5.7932192E-12
  2.4529999E-02   -1.6299590E-11
  2.4565000E-02   -9.8054802E-12
  2.4599999E-02    1.2478216E-11
  2.4635000E-02    1.2545101E-11
  2.4669999E-02   -7.9832000E-12
  2.4705000E-02   -1.3820504E-11
  2.4739999E-02    3.3949393E-12
  2.4775000E-02    1.3996420E-11
  2.4809999E-02    1.4024968E-12
  2.4845000E-02   -1.2756417E-11
  2.4879999E-02   -5.9749293E-12
  2.4915000E-02    1.0154196E-11
  2.4950000E-02    1.0169311E-11
  2.4985000E-02   -5.7652550E-12
  2.5020000E-02   -1.2855690E-11
  2.5055001E-02    4.3280017E-13
  2.5090000E-02    1.4075739E-11
  2.5125001E-02    5.9391454E-12
  2.5160000E-02   -1.2744262E-11
  2.5195001E-02   -1.1912405E-11
  2.5230000E-02    9.3302562E-12
  2.5265001E-02    1.7032585E-11
  2.5300000E-02   -3.4544609E-12
  2.5335001E-02   -1.9121722E-11
  2.5370000E-02   -2.3789148E-12
  2.5405001E-02    1.9244550E-11
  2.5440000E-02    8.3965951E-12
  2.5474999E-02   -1.6313716E-11
  2.5510000E-02   -1.2043650E-11
  2.5544999E-02    1.2597630E-11
  2.5580000E-02    1.4441269E-11
  2.5614999E-02   -6.9252074E-12
  2.5650000E-02   -1.2616139E-11
  2.5684999E-02    3.8109047E-12
  2.5720000E-02    1.0227152E-11
  2.5754999E-02   -1.2291184E-12
  2.5790000E-02   -5.3042236E-12
  2.5824999E-02    2.5940077E-12
  2.5860000E-02    2.6135277E-12
  2.5895000E-02   -3.5893974E-12
  2.5930000E-02    1.3490604E-12
  2.5965000E-02    8.1402151E-12
  2.6000001E-02   -1.1041856E-12
  2.6035000E-02   -1.0039884E-11
  2.6070001E-02    2.5838791E-12
  2.6105000E-02    1.4589399E-11
  2.6140001E-02    8.3734845E-14
  2.6175000E-02   -1.4673972E-11
  2.6210001E-02   -1.5011239E-13
  2.6245000E-02    1.7070045E-11
  2.6280001E-02    4.8699456E-12
  2.6315000E-02   -1.1875403E-11
  2.6350001E-02   -1.8622957E-12
  2.6385000E-02    1.1561996E-11
  2.6419999E-02    1.9102738E-12
  2.6455000E-02   -7.4570263E-12
  2.6489999E-02    4.9837435E-12
  2.6525000E-02    1.1666856E-11
  2.6559999E-02   -5.6739123E-12
  2.6595000E-02   -1.0363529E-11
  2.6629999E-02    1.4524695E-11
  2.6665000E-02    2.1196624E-11
  2.6699999E-02   -1.2318383E-11
  2.6735000E-02   -2.5083208E-11
  2.6769999E-02    1.3206707E-11
  2.6805000E-02    3.5714785E-11
  2.6839999E-02    1.6825988E-12
  2.6875000E-02   -2.7536261E-11
  2.6910000E-02   -7.0631270E-12
  2.6945001E-02    2.4126803E-11
  2.6980000E-02    2.2724768E-11