 -4.8000002E-03    1.0000000E-24
 -4.7650002E-03    1.0000002E-24
 -4.7300002E-03    1.0000001E-24
 -4.6950001E-03    1.0000000E-24
 -4.6600001E-03    1.0000001E-24
 -4.6250001E-03    1.0000002E-24
 -4.5900000E-03    1.0000002E-24
 -4.5550000E-03    9.9999992E-25
 -4.5200000E-03    1.0000001E-24
 -4.4849999E-03    1.0000002E-24
 -4.4499999E-03    1.0000001E-24
 -4.4149999E-03    9.9999972E-25
 -4.3799998E-03    1.0000002E-24
 -4.3449998E-03    1.0000004E-24
 -4.3100002E-03    1.0000003E-24
 -4.2750002E-03    1.0000002E-24
 -4.2400002E-03    9.9999992E-25
 -4.2050001E-03    9.9999982E-25
 -4.1700001E-03    1.0000002E-24
 -4.1350001E-03    1.0000001E-24
 -4.1000000E-03    9.9999982E-25
 -4.0650000E-03    1.0000001E-24
 -4.0300000E-03    1.0000002E-24
 -3.9949999E-03    9.9999972E-25
 -3.9599999E-03    9.9999943E-25
 -3.9249999E-03    9.9999982E-25
 -3.8900001E-03    1.0000003E-24
 -3.8550000E-03    1.0000002E-24
 -3.8200000E-03    1.0000003E-24
 -3.7849999E-03    1.0000005E-24
 -3.7499999E-03    1.0000003E-24
 -3.7150001E-03    9.9999992E-25
 -3.6800001E-03    1.0000000E-24
 -3.6450000E-03    1.0000001E-24
 -3.6100000E-03    9.9999992E-25
 -3.5750000E-03    1.0000002E-24
 -3.5399999E-03    1.0000003E-24
 -3.5049999E-03    9.9999963E-25
 -3.4700001E-03    9.9999972E-25
 -3.4350001E-03    1.0000005E-24
 -3.4000000E-03    9.9999982E-25
 -3.3650000E-03    9.9999933E-25
 -3.3300000E-03    1.0000007E-24
 -3.2949999E-03    1.0000006E-24
 -3.2599999E-03    9.9999923E-25
 -3.2250001E-03    9.9999963E-25
 -3.1900001E-03    1.0000008E-24
 -3.1550000E-03    1.0000000E-24
 -3.1200000E-03    9.9999982E-25
 -3.0850000E-03    1.0000011E-24
 -3.0499999E-03    1.0000011E-24
 -3.0149999E-03    9.9999943E-25
 -2.9800001E-03    9.9999933E-25
 -2.9450001E-03    1.0000005E-24
 -2.9100000E-03    1.0000000E-24
 -2.8750000E-03    9.9999923E-25
 -2.8400000E-03    1.0000001E-24
 -2.8049999E-03    1.0000009E-24
 -2.7699999E-03    1.0000000E-24
 -2.7350001E-03    9.9999953E-25
 -2.7000001E-03    1.0000007E-24
 -2.6650000E-03    1.0000006E-24
 -2.6300000E-03    9.9999913E-25
 -2.5950000E-03    9.9999923E-25
 -2.5599999E-03    1.0000004E-24
 -2.5249999E-03    1.0000007E-24
 -2.4900001E-03    1.0000005E-24
 -2.4550001E-03    1.0000006E-24
 -2.4200000E-03    1.0000002E-24
 -2.3850000E-03    9.9999903E-25
 -2.3500000E-03    9.9999943E-25
 -2.3149999E-03    9.9999972E-25
 -2.2799999E-03    9.9999953E-25
 -2.2450001E-03    1.0000005E-24
 -2.2100001E-03    1.0000011E-24
 -2.1750000E-03    9.9999982E-25
 -2.1400000E-03    9.9999893E-25
 -2.1050000E-03    1.0000004E-24
 -2.0699999E-03    1.0000015E-24
 -2.0349999E-03    9.9999953E-25
 -2.0000001E-03    9.9999923E-25
 -1.9650001E-03    1.0000016E-24
 -1.9300000E-03    1.0000011E-24
 -1.8950000E-03    9.9999874E-25
 -1.8600000E-03    1.0000001E-24
 -1.8250000E-03    1.0000016E-24
 -1.7900000E-03    9.9999933E-25
 -1.7550000E-03    9.9999834E-25
 -1.7199999E-03    9.9999972E-25
 -1.6850000E-03    1.0000003E-24
 -1.6500000E-03    1.0000003E-24
 -1.6150000E-03    1.0000004E-24
 -1.5800000E-03    9.9999953E-25
 -1.5450000E-03    9.9999953E-25
 -1.5100000E-03    1.0000006E-24
 -1.4750001E-03    1.0000006E-24
 -1.4400000E-03    1.0000000E-24
 -1.4050000E-03    1.0000007E-24
 -1.3700000E-03    1.0000012E-24
 -1.3350000E-03    9.9999992E-25
 -1.3000000E-03    9.9999893E-25
 -1.2650000E-03    9.9999943E-25
 -1.2300001E-03    1.0000003E-24
 -1.1950000E-03    1.0000000E-24
 -1.1600000E-03    9.9999953E-25
 -1.1250000E-03    1.0000005E-24
 -1.0900000E-03    1.0000013E-24
 -1.0550000E-03    9.9999972E-25
 -1.0200000E-03    9.9999893E-25
 -9.8500005E-04    1.0000000E-24
 -9.5000002E-04    1.0000000E-24
 -9.1499998E-04    9.9999923E-25
 -8.8000001E-04    1.0000004E-24
 -8.4499997E-04    1.0000012E-24
 -8.1000000E-04    9.9999982E-25
 -7.7500002E-04    9.9999943E-25
 -7.3999999E-04    1.0000004E-24
 -7.0500001E-04    1.0000001E-24
 -6.6999998E-04    9.9999884E-25
 -6.3500000E-04    9.9999963E-25
 -6.0000003E-04    1.0000012E-24
 -5.6499999E-04    1.0000004E-24
 -5.3000002E-04    9.9999933E-25
 -4.9499999E-04    9.9999982E-25
 -4.6000001E-04    1.0000004E-24
 -4.2500001E-04    1.0000008E-24
 -3.9000000E-04    1.0000006E-24
 -3.5500000E-04    9.9999963E-25
 -3.1999999E-04    9.9999953E-25
 -2.8499999E-04    1.0000002E-24
 -2.5000001E-04    9.9999992E-25
 -2.1499999E-04    9.9999963E-25
 -1.8000000E-04    1.0000003E-24
 -1.4500000E-04    1.0000006E-24
 -1.1000000E-04    9.9999963E-25
 -7.5000004E-05    9.9999893E-25
 -3.9999999E-05    9.9999963E-25
 -4.9999999E-06    1.0000003E-24
  2.9999999E-05    1.0000005E-24
  6.5000000E-05    1.0000004E-24
  9.9999997E-05    1.0000007E-24
  1.3499999E-04    1.0000005E-24
  1.7000000E-04    9.9999943E-25
  2.0500000E-04    9.9999933E-25
  2.3999999E-04    9.9999982E-25
  2.7500000E-04    1.0000000E-24
  3.1000000E-04    1.0000003E-24
  3.4500001E-04    1.0000010E-24
  3.8000001E-04    9.9999992E-25
  4.1499999E-04    9.9999953E-25
  4.4999999E-04    1.0000006E-24
  4.8500000E-04    1.0000002E-24
  5.2000000E-04    9.9999893E-25
  5.5499998E-04    9.9999913E-25
  5.9000001E-04    1.0000002E-24
  6.2499999E-04    1.0000003E-24
  6.6000002E-04    1.0000004E-24
  6.9500000E-04    1.0000006E-24
  7.3000003E-04    1.0000003E-24
  7.6500000E-04    1.0000002E-24
  7.9999998E-04    1.0000007E-24
  8.3500001E-04    1.0000002E-24
  8.6999999E-04    9.9999923E-25
  9.0500002E-04    9.9999923E-25
  9.4000000E-04    1.0000005E-24
  9.7499997E-04    1.0000007E-24
  1.0100000E-03    9.9999972E-25
  1.0450000E-03    1.0000000E-24
  1.0800000E-03    1.0000002E-24
  1.1150000E-03    9.9999884E-25
  1.1500000E-03    9.9999953E-25
  1.1849999E-03    1.0000018E-24
  1.2200000E-03    1.0000009E-24
  1.2550000E-03    9.9999893E-25
  1.2900000E-03    1.0000000E-24
  1.3250000E-03    1.0000007E-24
  1.3600000E-03    9.9999913E-25
  1.3950000E-03    9.9999913E-25
  1.4299999E-03    1.0000001E-24
  1.4650000E-03    1.0000003E-24
  1.5000000E-03    1.0000006E-24
  1.5350000E-03    1.0000001E-24
  1.5700000E-03    9.9999963E-25
  1.6050000E-03    9.9999972E-25
  1.6400000E-03    1.0000000E-24
  1.6749999E-03    9.9999893E-25
  1.7100000E-03    9.9999933E-25
  1.7450000E-03    1.0000014E-24
  1.7800000E-03    1.0000012E-24
  1.8150000E-03    9.9999913E-25
  1.8500000E-03    9.9999963E-25
  1.8850000E-03    1.0000017E-24
  1.9200000E-03    1.0000006E-24
  1.9550000E-03    9.9999844E-25
  1.9900000E-03    1.0000004E-24
  2.0250001E-03    1.0000021E-24
  2.0600001E-03    9.9999923E-25
  2.0949999E-03    9.9999874E-25
  2.1299999E-03    1.0000017E-24
  2.1650000E-03    1.0000009E-24
  2.2000000E-03    9.9999884E-25
  2.2350000E-03    1.0000006E-24
  2.2700001E-03    1.0000011E-24
  2.3050001E-03    9.9999834E-25
  2.3399999E-03    9.9999864E-25
  2.3749999E-03    1.0000009E-24
  2.4100000E-03    1.0000009E-24
  2.4450000E-03    1.0000006E-24
  2.4800000E-03    1.0000006E-24
  2.5150001E-03    9.9999893E-25
  2.5500001E-03    9.9999854E-25
  2.5849999E-03    1.0000009E-24
  2.6199999E-03    1.0000015E-24
  2.6550000E-03    9.9999953E-25
  2.6900000E-03    9.9999933E-25
  2.7250000E-03    1.0000008E-24
  2.7600001E-03    1.0000003E-24
  2.7950001E-03    9.9999933E-25
  2.8299999E-03    1.0000008E-24
  2.8649999E-03    1.0000016E-24
  2.9000000E-03    9.9999903E-25
  2.9350000E-03    9.9999864E-25
  2.9700000E-03    1.0000009E-24
  3.0050001E-03    9.9999982E-25
  3.0400001E-03    9.9999775E-25
  3.0749999E-03    1.0000000E-24
  3.1099999E-03    1.0000016E-24
  3.1450000E-03    1.0000004E-24
  3.1800000E-03    1.0000016E-24
  3.2150000E-03    1.0000018E-24
  3.2500001E-03    9.9999854E-25
  3.2850001E-03    9.9999844E-25
  3.3199999E-03    1.0000008E-24
  3.3549999E-03    9.9999913E-25
  3.3900000E-03    9.9999844E-25
  3.4250000E-03    1.0000012E-24
  3.4600000E-03    1.0000018E-24
  3.4950001E-03    1.0000002E-24
  3.5300001E-03    9.9999972E-25
  3.5649999E-03    1.0000002E-24
  3.5999999E-03    1.0000015E-24
  3.6350000E-03    9.9999933E-25
  3.6700000E-03    9.9999489E-25
  3.7050000E-03    1.0000020E-24
  3.7400001E-03    1.0000116E-24
  3.7750001E-03    9.9999598E-25
  3.8099999E-03    9.9998197E-25
  3.8449999E-03    1.0000134E-24
  3.8800000E-03    1.0000285E-24
  3.9149998E-03    9.9996807E-25
  3.9499998E-03    9.9995653E-25
  3.9849998E-03    1.0000636E-24
  4.0199999E-03    1.0000608E-24
  4.0549999E-03    9.9988297E-25
  4.0899999E-03    9.9992311E-25
  4.1250000E-03    1.0002020E-24
  4.1600000E-03    1.0000898E-24
  4.1950000E-03    9.9967422E-25
  4.2300001E-03    9.9990831E-25
  4.2650001E-03    1.0004948E-24
  4.3000001E-03    1.0000753E-24
  4.3350002E-03    9.9929103E-25
  4.3700002E-03    9.9996176E-25
  4.4049998E-03    1.0009478E-24
  4.4399998E-03    9.9999095E-25
  4.4749998E-03    9.9885735E-25
  4.5099999E-03    1.0000386E-24
  4.5449999E-03    1.0011544E-24
  4.5799999E-03    1.0000301E-24
  4.6150000E-03    9.9929744E-25
  4.6500000E-03    9.9964168E-25
  4.6850001E-03    9.9927141E-25
  4.7200001E-03    1.0012277E-24
  4.7550001E-03    1.0040413E-24
  4.7900002E-03    9.9692031E-25
  4.8250002E-03    9.8924686E-25
  4.8600002E-03    1.0065279E-24
  4.8949998E-03    1.0233379E-24
  4.9299998E-03    9.8772268E-25
  4.9649999E-03    9.5433188E-25
  4.9999999E-03    1.0208826E-24
  5.0349999E-03    1.0835973E-24
  5.0700000E-03    9.6785837E-25
  5.1050000E-03    8.5441367E-25
  5.1400000E-03    1.0438774E-24
  5.1750001E-03    1.2431812E-24
  5.2100001E-03    9.5024183E-25
  5.2450001E-03    6.0904381E-25
  5.2800002E-03    1.0356553E-24
  5.3150002E-03    1.6050661E-24
  5.3500002E-03    1.0259391E-24
  5.3849998E-03    1.0101246E-25
  5.4199998E-03    8.1625366E-25
  5.4549999E-03    2.2741320E-24
  5.4899999E-03    1.5176128E-24
  5.5249999E-03   -7.0178954E-25
  5.5600000E-03   -1.4895331E-25
  5.5950000E-03    3.0915883E-24
  5.6300000E-03    3.2478616E-24
  5.6650001E-03   -1.2403792E-24
  5.7000001E-03   -3.0287094E-24
  5.7350001E-03    2.7553312E-24
  5.7700002E-03    7.7198417E-24
  5.8050002E-03    1.0531732E-24
  5.8400002E-03   -9.4835501E-24
  5.8749998E-03   -3.3067456E-24
  5.9099998E-03    1.6251347E-23
  5.9449999E-03    1.3706211E-23
  5.9799999E-03   -1.9426654E-23
  6.0149999E-03   -2.6649274E-23
  6.0500000E-03    2.5399344E-23
  6.0850000E-03    5.3235224E-23
  6.1200000E-03   -2.2815284E-23
  6.1550001E-03   -8.9008558E-23
  6.1900001E-03    1.3575589E-23
  6.2250001E-03    1.4521629E-22
  6.2600002E-03    2.0397395E-23
  6.2950002E-03   -2.1524447E-22
  6.3299998E-03   -8.6440784E-23
  6.3649998E-03    3.0382542E-22
  6.3999998E-03    2.1406489E-22
  6.4349999E-03   -3.9054050E-22
  6.4699999E-03   -4.2269278E-22
  6.5049999E-03    4.5524161E-22
  6.5400000E-03    7.5093151E-22
  6.5750000E-03   -4.3731328E-22
  6.6100000E-03   -1.2174217E-21
  6.6450001E-03    2.5738921E-22
  6.6800001E-03    1.8387029E-21
  6.7150001E-03    2.2459138E-22
  6.7500002E-03   -2.5730134E-21
  6.7850002E-03   -1.1831559E-21
  6.8199998E-03    3.3151432E-21
  6.8549998E-03    2.8541207E-21
  6.8899998E-03   -3.8126552E-21
  6.9249999E-03   -5.4763032E-21
  6.9599999E-03    3.6330326E-21
  6.9949999E-03    9.2619284E-21
  7.0300000E-03   -2.0617047E-21
  7.0650000E-03   -1.4250671E-20
  7.1000000E-03   -1.9240445E-21
  7.1350001E-03    2.0157740E-20
  7.1700001E-03    9.7006443E-21
  7.2050001E-03   -2.6075001E-20
  7.2400002E-03   -2.2885957E-20
  7.2750002E-03    3.0155910E-20
  7.3099998E-03    4.3126874E-20
  7.3449998E-03   -2.9184034E-20
  7.3799998E-03   -7.1572720E-20
  7.4149999E-03    1.8231297E-20
  7.4499999E-03    1.0807007E-19
  7.4850000E-03    9.5831241E-21
  7.5200000E-03   -1.4987916E-19
  7.5550000E-03   -6.2877158E-20
  7.5900001E-03    1.9003142E-19
  7.6250001E-03    1.5114699E-19
  7.6600001E-03   -2.1530125E-19
  7.6950002E-03   -2.8273524E-19
  7.7300002E-03    2.0424705E-19
  7.7650002E-03    4.6133931E-19
  7.7999998E-03   -1.2576917E-19
  7.8349998E-03   -6.8058198E-19
  7.8699999E-03   -6.0726056E-20
  7.9049999E-03    9.1668931E-19
  7.9399999E-03    4.0233571E-19
  7.9750000E-03   -1.1195594E-18
  8.0100000E-03   -9.4507898E-19
  8.0450000E-03    1.2035649E-18
  8.0800001E-03    1.7200853E-18
  8.1150001E-03   -1.0404095E-18
  8.1500001E-03   -2.7220039E-18
  8.1850002E-03    4.5781784E-19
  8.2200002E-03    3.8793981E-18
  8.2550002E-03    7.5065214E-19
  8.2900003E-03   -5.0186206E-18
  8.3250003E-03   -2.7982858E-18
  8.3600003E-03    5.8260705E-18
  8.3950004E-03    5.8538306E-18
  8.4300004E-03   -5.8177556E-18
  8.4650004E-03   -9.9608031E-18
  8.5000005E-03    4.3305064E-18
  8.5349996E-03    1.4926697E-17
  8.5699996E-03   -5.5391348E-19
  8.6049996E-03   -2.0188206E-17
  8.6399997E-03   -6.3738220E-18
  8.6749997E-03    2.4671413E-17
  8.7099997E-03    1.7184401E-17
  8.7449998E-03   -2.6678471E-17
  8.7799998E-03   -3.2195067E-17
  8.8149998E-03    2.3852249E-17
  8.8499999E-03    5.0921550E-17
  8.8849999E-03   -1.3284260E-17
  8.9199999E-03   -7.1614736E-17
  8.9550000E-03   -8.1598754E-18
  8.9900000E-03    9.0786163E-17
  9.0250000E-03    4.3228125E-17
  9.0600001E-03   -1.0283778E-16
  9.0950001E-03   -9.3336691E-17
  9.1300001E-03    9.9958768E-17
  9.1650002E-03    1.5730893E-16
  9.2000002E-03   -7.2501779E-17
  9.2350002E-03   -2.2989885E-16
  9.2700003E-03    1.0061282E-17
  9.3050003E-03    3.0032990E-16
  9.3400003E-03    9.6559122E-17
  9.3750004E-03   -3.5121631E-16
  9.4100004E-03   -2.5238683E-16
  9.4450004E-03    3.5838372E-16
  9.4799995E-03    4.5443693E-16
  9.5149996E-03   -2.9219696E-16
  9.5499996E-03   -6.8737491E-16
  9.5849996E-03    1.2100386E-16
  9.6199997E-03    9.1940958E-16
  9.6549997E-03    1.8283684E-16
  9.6899997E-03   -1.0995726E-15
  9.7249998E-03   -6.3424901E-16
  9.7599998E-03    1.1578211E-15
  9.7949998E-03    1.2245440E-15
  9.8299999E-03   -1.0096417E-15
  9.8649999E-03   -1.9096580E-15
  9.8999999E-03    5.6658373E-16
  9.9350000E-03    2.5997499E-15
  9.9700000E-03    2.4631017E-16
  1.0005000E-02   -3.1534228E-15
  1.0040000E-02   -1.4665394E-15
  1.0075000E-02    3.3803480E-15
  1.0110000E-02    3.0654141E-15
  1.0145000E-02   -3.0563541E-15
  1.0180000E-02   -4.9189545E-15
  1.0215000E-02    1.9539813E-15
  1.0250000E-02    6.7844730E-15
  1.0285000E-02    1.1040593E-16
  1.0320000E-02   -8.2913065E-15
  1.0355000E-02   -3.2148227E-15
  1.0390000E-02    8.9550110E-15
  1.0425000E-02    7.2623334E-15
  1.0460000E-02   -8.2233499E-15
  1.0495000E-02   -1.1915533E-14
  1.0530000E-02    5.5590374E-15
  1.0565000E-02    1.6551300E-14
  1.0600000E-02   -5.5916128E-16
  1.0635000E-02   -2.0255299E-14
  1.0670000E-02   -6.8985341E-15
  1.0705000E-02    2.1876513E-14
  1.0740000E-02    1.6502048E-14
  1.0775000E-02   -2.0156298E-14
  1.0810000E-02   -2.7374755E-14
  1.0845000E-02    1.3937050E-14
  1.0880000E-02    3.8005294E-14
  1.0915000E-02   -2.4414744E-15
  1.0950000E-02   -4.6281718E-14
  1.0985000E-02   -1.4410482E-14
  1.1020000E-02    4.9662456E-14
  1.1055000E-02    3.5694693E-14
  1.1090000E-02   -4.5509037E-14
  1.1125000E-02   -5.9260824E-14
  1.1160000E-02    3.1569951E-14
  1.1195000E-02    8.1670998E-14
  1.1230000E-02   -6.5782713E-15
  1.1265000E-02   -9.8380403E-14
  1.1300000E-02   -2.9125590E-14
  1.1335000E-02    1.0420512E-13
  1.1370000E-02    7.3057750E-14
  1.1405000E-02   -9.4099160E-14
  1.1440000E-02   -1.2029491E-13
  1.1475000E-02    6.4179273E-14
  1.1510000E-02    1.6355890E-13
  1.1545000E-02   -1.2879050E-14
  1.1580000E-02   -1.9380225E-13
  1.1615000E-02   -5.7961252E-14
  1.1650000E-02    2.0134014E-13
  1.1685000E-02    1.4231938E-13
  1.1720000E-02   -1.7747919E-13
  1.1755000E-02   -2.2978082E-13
  1.1790000E-02    1.1647663E-13
  1.1825000E-02    3.0613069E-13
  1.1860000E-02   -1.7526911E-14
  1.1895000E-02   -3.5486463E-13
  1.1930000E-02   -1.1361900E-13
  1.1965000E-02    3.5958923E-13
  1.2000000E-02    2.6382634E-13
  1.2035000E-02   -3.0708818E-13
  1.2070000E-02   -4.1293669E-13
  1.2105000E-02    1.9063637E-13
  1.2140000E-02    5.3557197E-13
  1.2175000E-02   -1.2959682E-14
  1.2210000E-02   -6.0443008E-13
  1.2245000E-02   -2.1185248E-13
  1.2280000E-02    5.9476800E-13
  1.2315000E-02    4.5811678E-13
  1.2350000E-02   -4.8947066E-13
  1.2385000E-02   -6.9041284E-13
  1.2420000E-02    2.8392582E-13
  1.2455000E-02    8.6771790E-13
  1.2490000E-02    1.0329441E-14
  1.2525000E-02   -9.4956909E-13
  1.2560000E-02   -3.6423620E-13
  1.2595000E-02    9.0337411E-13
  1.2630000E-02    7.3281295E-13
  1.2665000E-02   -7.1173324E-13
  1.2700000E-02   -1.0599834E-12
  1.2735000E-02    3.7837561E-13
  1.2770000E-02    1.2862797E-12
  1.2805000E-02    6.8521604E-14
  1.2840000E-02   -1.3587186E-12
  1.2875000E-02   -5.7694859E-13
  1.2910000E-02    1.2413610E-12
  1.2945000E-02    1.0763700E-12
  1.2980000E-02   -9.2426706E-13
  1.3015000E-02   -1.4871924E-12
  1.3050000E-02    4.2900273E-13
  1.3085000E-02    1.7329996E-12
  1.3120000E-02    1.9027862E-13
  1.3155000E-02   -1.7542539E-12
  1.3190000E-02   -8.5134227E-13
  1.3225000E-02    1.5215856E-12
  1.3260000E-02    1.4548596E-12
  1.3295000E-02   -1.0450375E-12
  1.3330000E-02   -1.9003410E-12
  1.3365000E-02    3.7645858E-13
  1.3400000E-02    2.1033349E-12
  1.3435000E-02    3.9481940E-13
  1.3470000E-02   -2.0115524E-12
  1.3505000E-02   -1.1523326E-12
  1.3540000E-02    1.6192414E-12
  1.3575000E-02    1.7706783E-12
  1.3610000E-02   -9.7509164E-13
  1.3645000E-02   -2.1404165E-12
  1.3680000E-02    1.7722698E-13
  1.3715000E-02    2.1907584E-12
  1.3750000E-02    6.4254727E-13
  1.3785000E-02   -1.9040607E-12
  1.3820000E-02   -1.3378154E-12
  1.3855000E-02    1.3263022E-12
  1.3890000E-02    1.7729166E-12
  1.3925000E-02   -5.7119462E-13
  1.3960000E-02   -1.8592766E-12
  1.3995000E-02   -1.9798686E-13
  1.4030000E-02    1.5856922E-12
  1.4065000E-02    8.0844278E-13
  1.4100000E-02   -1.0215630E-12
  1.4135000E-02   -1.1128749E-12
  1.4170000E-02    3.0669954E-13
  1.4205000E-02    1.0147833E-12
  1.4240000E-02    3.5488569E-13
  1.4275000E-02   -5.1092111E-13
  1.4310000E-02   -7.2951335E-13
  1.4345000E-02   -2.6800234E-13
  1.4380000E-02    6.3816362E-13
  1.4415000E-02    1.0827875E-12
  1.4450000E-02   -2.3000848E-14
  1.4485000E-02   -1.6598149E-12
  1.4520000E-02   -1.0541315E-12
  1.4555000E-02    1.7256370E-12
  1.4590000E-02    2.4021325E-12
  1.4625000E-02   -1.0381668E-12
  1.4660000E-02   -3.6498287E-12
  1.4695000E-02   -4.7729577E-13
  1.4730000E-02    4.3109990E-12
  1.4765000E-02    2.6009639E-12
  1.4800000E-02   -4.0000238E-12
  1.4835000E-02   -4.9028780E-12
  1.4870000E-02    2.5378098E-12
  1.4905000E-02    6.8857229E-12
  1.4940000E-02    1.0748231E-13
  1.4975000E-02   -7.9377642E-12
  1.5010000E-02   -3.7063295E-12
  1.5045000E-02    7.3745853E-12
  1.5080000E-02    7.5282497E-12
  1.5115000E-02   -4.8678995E-12
  1.5150000E-02   -1.0550239E-11
  1.5185000E-02    7.2064707E-13
  1.5220000E-02    1.1988147E-11
  1.5255000E-02    4.4721323E-12
  1.5290000E-02   -1.1306049E-11
  1.5325000E-02   -1.0002585E-11
  1.5360000E-02    7.9657930E-12
  1.5395000E-02    1.4605544E-11
  1.5430000E-02   -2.0010940E-12
  1.5465000E-02   -1.6644068E-11
  1.5500000E-02   -5.3076068E-12
  1.5535000E-02    1.5342052E-11
  1.5570000E-02    1.2257841E-11
  1.5605000E-02   -1.1034742E-11
  1.5640000E-02   -1.7791600E-11
  1.5675001E-02    4.0241825E-12
  1.5710000E-02    2.0718085E-11
  1.5745001E-02    5.1408838E-12
  1.5780000E-02   -1.9204848E-11
  1.5814999E-02   -1.4063142E-11
  1.5850000E-02    1.2943616E-11
  1.5884999E-02    1.9682665E-11
  1.5920000E-02   -4.2426258E-12
  1.5954999E-02   -2.1250942E-11
  1.5990000E-02   -4.9045681E-12
  1.6024999E-02    1.9239487E-11
  1.6060000E-02    1.4013709E-11
  1.6094999E-02   -1.2486380E-11
  1.6130000E-02   -2.0565620E-11
  1.6164999E-02    1.0770141E-12
  1.6200000E-02    2.0319238E-11
  1.6235000E-02    1.0079991E-11
  1.6270000E-02   -1.3643926E-11
  1.6305000E-02   -1.6583535E-11
  1.6340001E-02    5.0091012E-12
  1.6375000E-02    1.9673343E-11
  1.6410001E-02    5.0669404E-12
  1.6445000E-02   -1.9444746E-11
  1.6480001E-02   -1.7854201E-11
  1.6515000E-02    1.0814432E-11
  1.6550001E-02    2.6880253E-11
  1.6585000E-02    5.2091677E-12
  1.6620001E-02   -2.4608924E-11
  1.6655000E-02   -1.8136210E-11
  1.6690001E-02    1.5907583E-11
  1.6725000E-02    2.4725225E-11
  1.6759999E-02   -7.7527143E-12
  1.6795000E-02   -3.1546075E-11
  1.6829999E-02   -5.7903309E-12
  1.6865000E-02    3.4099123E-11
  1.6899999E-02    2.6709782E-11
  1.6935000E-02   -2.0119430E-11
  1.6969999E-02   -3.8161290E-11
  1.7005000E-02   -1.9724060E-12
  1.7039999E-02    3.2356538E-11
  1.7075000E-02    1.3586578E-11
  1.7109999E-02   -2.6228021E-11
  1.7145000E-02   -2.1940699E-11
  1.7180000E-02    2.3128662E-11
  1.7215000E-02    3.9901232E-11
  1.7250000E-02   -2.2609638E-12
  1.7285001E-02   -4.6356093E-11
  1.7320000E-02   -2.9410238E-11
  1.7355001E-02    2.4165645E-11
  1.7390000E-02    3.7615824E-11
  1.7425001E-02   -3.5977703E-12
  1.7460000E-02   -2.9990444E-11
  1.7495001E-02    3.0158432E-12
  1.7530000E-02    4.0872833E-11
  1.7565001E-02    1.3177306E-11
  1.7600000E-02   -4.8497085E-11
  1.7635001E-02   -5.0496624E-11
  1.7670000E-02    1.5871669E-11
  1.7704999E-02    5.4787605E-11
  1.7740000E-02    1.5552748E-11
  1.7774999E-02   -2.7951693E-11
  1.7810000E-02   -3.4510055E-12
  1.7844999E-02    3.5866116E-11
  1.7880000E-02    4.0690029E-12
  1.7914999E-02   -6.0848673E-11
  1.7950000E-02   -5.0677917E-11
  1.7984999E-02    2.9570509E-11
  1.8020000E-02    6.3050364E-11
  1.8054999E-02    1.3008256E-11
  1.8090000E-02   -2.2194066E-11
  1.8124999E-02    1.3060316E-11
  1.8160000E-02    3.2989323E-11
  1.8195000E-02   -3.0719191E-11
  1.8230001E-02   -9.0256726E-11
  1.8265000E-02   -3.8006917E-11
  1.8300001E-02    6.5651207E-11
  1.8335000E-02    7.9165549E-11
  1.8370001E-02    3.8418491E-12
  1.8405000E-02   -2.8458505E-11
  1.8440001E-02    2.0075898E-11
  1.8475000E-02    3.4429189E-11
  1.8510001E-02   -4.9955096E-11
  1.8545000E-02   -1.2092888E-10
  1.8580001E-02   -5.2973036E-11
  1.8615000E-02    9.1731352E-11
  1.8650001E-02    1.3665294E-10
  1.8685000E-02    3.5733354E-11
  1.8719999E-02   -6.5038343E-11
  1.8755000E-02   -3.9486459E-11
  1.8789999E-02    3.5300918E-11
  1.8825000E-02   -1.2273022E-12
  1.8859999E-02   -1.2612285E-10
  1.8895000E-02   -1.2792398E-10
  1.8929999E-02    7.2739662E-11
  1.8965000E-02    2.4208444E-10
  1.8999999E-02    1.3485016E-10
  1.9035000E-02   -1.1833076E-10
  1.9069999E-02   -1.6962498E-10
  1.9105000E-02    1.5496196E-11
  1.9140000E-02    9.3435974E-11
  1.9175000E-02   -9.2431680E-11
  1.9210000E-02   -2.1527702E-10
  1.9245001E-02    1.7022720E-11
  1.9280000E-02    3.3097977E-10
  1.9315001E-02    2.5902244E-10
  1.9350000E-02   -1.2285481E-10
  1.9385001E-02   -2.8771202E-10
  1.9420000E-02   -6.4895693E-11
  1.9455001E-02    1.2671809E-10
  1.9490000E-02   -1.7639831E-11
  1.9525001E-02   -2.0188372E-10
  1.9560000E-02   -3.4828494E-11
  1.9595001E-02    3.1099029E-10
  1.9630000E-02    3.4141737E-10
  1.9664999E-02   -1.5560176E-11
  1.9700000E-02   -3.1051312E-10
  1.9734999E-02   -2.2244052E-10
  1.9770000E-02    3.4486563E-11
  1.9804999E-02    8.8193446E-11
  1.9840000E-02   -4.7926316E-11
  1.9874999E-02   -4.5789823E-11
  1.9910000E-02    1.9984417E-10
  1.9944999E-02    3.6717440E-10
  1.9980000E-02    1.5398177E-10
  2.0014999E-02   -2.4789956E-10
  2.0050000E-02   -3.6530276E-10
  2.0085000E-02   -9.0672823E-11
  2.0120000E-02    1.7794470E-10
  2.0155000E-02    1.3965701E-10
  2.0190001E-02    2.2520178E-11
  2.0225000E-02    1.5852429E-10
  2.0260001E-02    3.8411077E-10
  2.0295000E-02    2.7206359E-10
  2.0330001E-02   -1.4410809E-10
  2.0365000E-02   -3.4507575E-10
  2.0400001E-02   -8.7484200E-11
  2.0435000E-02    2.5207059E-10
  2.0470001E-02    2.8946232E-10
  2.0505000E-02    1.9440871E-10
  2.0540001E-02    3.1202874E-10
  2.0575000E-02    5.2143245E-10
  2.0609999E-02    4.2247070E-10
  2.0645000E-02    4.2916760E-11
  2.0679999E-02   -1.2280467E-10
  2.0715000E-02    1.5699193E-10
  2.0749999E-02    5.1850513E-10
  2.0785000E-02    5.9300520E-10
  2.0819999E-02    5.4956861E-10
  2.0855000E-02    7.2043066E-10
  2.0889999E-02    9.7286434E-10
  2.0925000E-02    9.1029911E-10
  2.0959999E-02    5.7962252E-10
  2.0995000E-02    4.8480875E-10
  2.1029999E-02    8.4657764E-10
  2.1065000E-02    1.2973985E-09
  2.1100000E-02    1.4728906E-09
  2.1135001E-02    1.5138164E-09
  2.1170000E-02    1.7269336E-09
  2.1205001E-02    2.0533848E-09
  2.1240000E-02    2.1973112E-09
  2.1275001E-02    2.1255619E-09
  2.1310000E-02    2.1484743E-09
  2.1345001E-02    2.5298255E-09
  2.1380000E-02    3.1813250E-09
  2.1415001E-02    3.7599661E-09
  2.1450000E-02    4.0413108E-09
  2.1485001E-02    4.1990402E-09
  2.1520000E-02    4.6078266E-09
  2.1555001E-02    5.3029945E-09
  2.1590000E-02    5.8854179E-09
  2.1624999E-02    6.1797887E-09
  2.1660000E-02    6.6453851E-09
  2.1694999E-02    7.6927034E-09
  2.1730000E-02    8.9135970E-09
  2.1764999E-02    9.6376453E-09
  2.1800000E-02    1.0044021E-08
  2.1834999E-02    1.0930785E-08
  2.1870000E-02    1.2435359E-08
  2.1904999E-02    1.3857608E-08
  2.1940000E-02    1.4884477E-08
  2.1974999E-02    1.6089501E-08
  2.2010000E-02    1.7882835E-08
  2.2045000E-02    1.9803085E-08
  2.2080000E-02    2.1360039E-08
  2.2115000E-02    2.2882947E-08
  2.2150001E-02    2.4948751E-08
  2.2185000E-02    2.7503194E-08
  2.2220001E-02    3.0128906E-08
  2.2255000E-02    3.2772064E-08
  2.2290001E-02    3.5644380E-08
  2.2325000E-02    3.8715719E-08
  2.2360001E-02    4.1830351E-08
  2.2395000E-02    4.5113776E-08
  2.2430001E-02    4.8812044E-08
  2.2465000E-02    5.2894670E-08
  2.2500001E-02    5.7227698E-08
  2.2535000E-02    6.1949592E-08
  2.2569999E-02    6.7241693E-08
  2.2605000E-02    7.2883310E-08
  2.2639999E-02    7.8494161E-08
  2.2675000E-02    8.4134527E-08
  2.2709999E-02    9.0258844E-08
  2.2745000E-02    9.7096795E-08
  2.2779999E-02    1.0446086E-07
  2.2815000E-02    1.1221680E-07
  2.2849999E-02    1.2057963E-07
  2.2885000E-02    1.2974094E-07
  2.2919999E-02    1.3948761E-07
  2.2955000E-02    1.4946721E-07
  2.2990000E-02    1.5963784E-07
  2.3025000E-02    1.7026167E-07
  2.3060000E-02    1.8163526E-07
  2.3095001E-02    1.9393381E-07
  2.3130000E-02    2.0718993E-07
  2.3165001E-02    2.2132265E-07
  2.3200000E-02    2.3622344E-07
  2.3235001E-02    2.5185366E-07
  2.3270000E-02    2.6820823E-07
  2.3305001E-02    2.8515771E-07
  2.3340000E-02    3.0255163E-07
  2.3375001E-02    3.2064796E-07
  2.3410000E-02    3.4008198E-07
  2.3445001E-02    3.6107693E-07
  2.3480000E-02    3.8313723E-07
  2.3514999E-02    4.0588401E-07
  2.3550000E-02    4.2967395E-07
  2.3584999E-02    4.5489361E-07
  2.3620000E-02    4.8105557E-07
  2.3654999E-02    5.0747354E-07
  2.3690000E-02    5.3461650E-07
  2.3724999E-02    5.6365548E-07
  2.3760000E-02    5.9470256E-07
  2.3794999E-02    6.2678589E-07
  2.3830000E-02    6.5956812E-07
  2.3864999E-02    6.9378615E-07
  2.3900000E-02    7.2984562E-07
  2.3934999E-02    7.6712911E-07
  2.3970000E-02    8.0501570E-07
  2.4005000E-02    8.4380349E-07
  2.4040001E-02    8.8414004E-07
  2.4075000E-02    9.2622986E-07
  2.4110001E-02    9.6991334E-07
  2.4145000E-02    1.0150973E-06
  2.4180001E-02    1.0616753E-06
  2.4215000E-02    1.1094388E-06
  2.4250001E-02    1.1584162E-06
  2.4285000E-02    1.2088848E-06
  2.4320001E-02    1.2607277E-06
  2.4355000E-02    1.3135174E-06
  2.4390001E-02    1.3674073E-06
  2.4425000E-02    1.4230496E-06
  2.4460001E-02    1.4804672E-06
  2.4495000E-02    1.5390308E-06
  2.4529999E-02    1.5985606E-06
  2.4565000E-02    1.6594773E-06
  2.4599999E-02    1.7219065E-06
  2.4635000E-02    1.7853023E-06
  2.4669999E-02    1.8493427E-06
  2.4705000E-02    1.9145116E-06
  2.4739999E-02    1.9810850E-06
  2.4775000E-02    2.0485190E-06
  2.4809999E-02    2.1165597E-06
  2.4845000E-02    2.1856658E-06
  2.4879999E-02    2.2560325E-06
  2.4915000E-02    2.3274206E-06
  2.4950000E-02    2.3994828E-06
  2.4985000E-02    2.4718215E-06
  2.5020000E-02    2.5444474E-06
  2.5055001E-02    2.6176137E-06
  2.5090000E-02    2.6911362E-06
  2.5125001E-02    2.7649082E-06
  2.5160000E-02    2.8390843E-06
  2.5195001E-02    2.9135217E-06
  2.5230000E-02    2.9883035E-06
  2.5265001E-02    3.0637291E-06
  2.5300000E-02    3.1389879E-06
  2.5335001E-02    3.2131882E-06
  2.5370000E-02    3.2869700E-06
  2.5405001E-02    3.3608223E-06
  2.5440000E-02    3.4340740E-06
  2.5474999E-02    3.5064843E-06
  2.5510000E-02    3.5784647E-06
  2.5544999E-02    3.6501508E-06
  2.5580000E-02    3.7213777E-06
  2.5614999E-02    3.7916152E-06
  2.5650000E-02    3.8605353E-06
  2.5684999E-02    3.9287288E-06
  2.5720000E-02    3.9960132E-06
  2.5754999E-02    4.0610453E-06
  2.5790000E-02    4.1241469E-06
  2.5824999E-02    4.1866633E-06
  2.5860000E-02    4.2480820E-06
  2.5895000E-02    4.3076734E-06
  2.5930000E-02    4.3660725E-06
  2.5965000E-02    4.4231388E-06
  2.6000001E-02    4.4780700E-06
  2.6035000E-02    4.5310890E-06
  2.6070001E-02    4.5822221E-06
  2.6105000E-02    4.6311106E-06
  2.6140001E-02    4.6779910E-06
  2.6175000E-02    4.7224653E-06
  2.6210001E-02    4.7645408E-06
  2.6245000E-02    4.8059028E-06
  2.6280001E-02    4.8461397E-06
  2.6315000E-02    4.8829634E-06
  2.6350001E-02    4.9173109E-06
  2.6385000E-02    4.9505843E-06
  2.6419999E-02    4.9810901E-06
  2.6455000E-02    5.0086414E-06
  2.6489999E-02    5.0346493E-06
  2.6525000E-02    5.0583012E-06
  2.6559999E-02    5.0796239E-06
  2.6595000E-02    5.0997087E-06
  2.6629999E-02    5.1173311E-06
  2.6665000E-02    5.1328216E-06
  2.6699999E-02    5.1479060E-06
  2.6735000E-02    5.1603124E-06
  2.6769999E-02    5.1690695E-06
  2.6805000E-02    5.1772745E-06
  2.6839999E-02    5.1840502E-06
  2.6875000E-02    5.1873258E-06
  2.6910000E-02    5.1898082E-06
  2.6945001E-02    5.1918764E-06
  2.6980000E-02    5.1914813E-06