 -4.8000002E-03    1.0000000E-24
 -4.7650002E-03    1.0000000E-24
 -4.7300002E-03    1.0000001E-24
 -4.6950001E-03    1.0000002E-24
 -4.6600001E-03    1.0000001E-24
 -4.6250001E-03    1.0000001E-24
 -4.5900000E-03    1.0000001E-24
 -4.5550000E-03    1.0000001E-24
 -4.5200000E-03    1.0000001E-24
 -4.4849999E-03    1.0000002E-24
 -4.4499999E-03    1.0000001E-24
 -4.4149999E-03    1.0000001E-24
 -4.3799998E-03    1.0000002E-24
 -4.3449998E-03    1.0000002E-24
 -4.3100002E-03    1.0000001E-24
 -4.2750002E-03    1.0000000E-24
 -4.2400002E-03    9.9999992E-25
 -4.2050001E-03    9.9999982E-25
 -4.1700001E-03    1.0000001E-24
 -4.1350001E-03    1.0000001E-24
 -4.1000000E-03    1.0000001E-24
 -4.0650000E-03    9.9999992E-25
 -4.0300000E-03    9.9999982E-25
 -3.9949999E-03    1.0000000E-24
 -3.9599999E-03    1.0000001E-24
 -3.9249999E-03    1.0000002E-24
 -3.8900001E-03    1.0000002E-24
 -3.8550000E-03    1.0000001E-24
 -3.8200000E-03    1.0000000E-24
 -3.7849999E-03    1.0000000E-24
 -3.7499999E-03    1.0000004E-24
 -3.7150001E-03    1.0000004E-24
 -3.6800001E-03    1.0000000E-24
 -3.6450000E-03    9.9999972E-25
 -3.6100000E-03    1.0000000E-24
 -3.5750000E-03    9.9999992E-25
 -3.5399999E-03    9.9999982E-25
 -3.5049999E-03    1.0000003E-24
 -3.4700001E-03    1.0000006E-24
 -3.4350001E-03    1.0000002E-24
 -3.4000000E-03    9.9999982E-25
 -3.3650000E-03    1.0000000E-24
 -3.3300000E-03    1.0000000E-24
 -3.2949999E-03    9.9999972E-25
 -3.2599999E-03    9.9999972E-25
 -3.2250001E-03    1.0000003E-24
 -3.1900001E-03    1.0000004E-24
 -3.1550000E-03    1.0000001E-24
 -3.1200000E-03    9.9999992E-25
 -3.0850000E-03    9.9999982E-25
 -3.0499999E-03    1.0000000E-24
 -3.0149999E-03    1.0000003E-24
 -2.9800001E-03    1.0000003E-24
 -2.9450001E-03    1.0000002E-24
 -2.9100000E-03    9.9999982E-25
 -2.8750000E-03    9.9999982E-25
 -2.8400000E-03    1.0000000E-24
 -2.8049999E-03    1.0000001E-24
 -2.7699999E-03    1.0000001E-24
 -2.7350001E-03    1.0000002E-24
 -2.7000001E-03    1.0000002E-24
 -2.6650000E-03    9.9999992E-25
 -2.6300000E-03    1.0000000E-24
 -2.5950000E-03    1.0000008E-24
 -2.5599999E-03    1.0000009E-24
 -2.5249999E-03    1.0000003E-24
 -2.4900001E-03    9.9999972E-25
 -2.4550001E-03    9.9999982E-25
 -2.4200000E-03    1.0000000E-24
 -2.3850000E-03    1.0000002E-24
 -2.3500000E-03    1.0000002E-24
 -2.3149999E-03    9.9999982E-25
 -2.2799999E-03    9.9999963E-25
 -2.2450001E-03    9.9999992E-25
 -2.2100001E-03    1.0000001E-24
 -2.1750000E-03    1.0000001E-24
 -2.1400000E-03    1.0000000E-24
 -2.1050000E-03    1.0000000E-24
 -2.0699999E-03    1.0000003E-24
 -2.0349999E-03    1.0000005E-24
 -2.0000001E-03    1.0000006E-24
 -1.9650001E-03    1.0000005E-24
 -1.9300000E-03    1.0000001E-24
 -1.8950000E-03    9.9999953E-25
 -1.8600000E-03    9.9999963E-25
 -1.8250000E-03    1.0000001E-24
 -1.7900000E-03    1.0000001E-24
 -1.7550000E-03    9.9999972E-25
 -1.7199999E-03    9.9999992E-25
 -1.6850000E-03    1.0000005E-24
 -1.6500000E-03    1.0000004E-24
 -1.6150000E-03    1.0000001E-24
 -1.5800000E-03    1.0000002E-24
 -1.5450000E-03    1.0000006E-24
 -1.5100000E-03    1.0000005E-24
 -1.4750001E-03    9.9999992E-25
 -1.4400000E-03    9.9999963E-25
 -1.4050000E-03    9.9999963E-25
 -1.3700000E-03    1.0000000E-24
 -1.3350000E-03    1.0000005E-24
 -1.3000000E-03    1.0000001E-24
 -1.2650000E-03    9.9999953E-25
 -1.2300001E-03    9.9999963E-25
 -1.1950000E-03    1.0000005E-24
 -1.1600000E-03    1.0000007E-24
 -1.1250000E-03    1.0000000E-24
 -1.0900000E-03    9.9999943E-25
 -1.0550000E-03    9.9999953E-25
 -1.0200000E-03    1.0000000E-24
 -9.8500005E-04    1.0000005E-24
 -9.5000002E-04    1.0000004E-24
 -9.1499998E-04    1.0000005E-24
 -8.8000001E-04    1.0000008E-24
 -8.4499997E-04    9.9999992E-25
 -8.1000000E-04    9.9999923E-25
 -7.7500002E-04    1.0000000E-24
 -7.3999999E-04    1.0000004E-24
 -7.0500001E-04    1.0000000E-24
 -6.6999998E-04    9.9999972E-25
 -6.3500000E-04    1.0000000E-24
 -6.0000003E-04    1.0000004E-24
 -5.6499999E-04    1.0000007E-24
 -5.3000002E-04    1.0000001E-24
 -4.9499999E-04    9.9999933E-25
 -4.6000001E-04    9.9999992E-25
 -4.2500001E-04    1.0000007E-24
 -3.9000000E-04    1.0000006E-24
 -3.5500000E-04    9.9999972E-25
 -3.1999999E-04    9.9999923E-25
 -2.8499999E-04    9.9999963E-25
 -2.5000001E-04    1.0000005E-24
 -2.1499999E-04    1.0000006E-24
 -1.8000000E-04    1.0000002E-24
 -1.4500000E-04    1.0000004E-24
 -1.1000000E-04    1.0000010E-24
 -7.5000004E-05    1.0000003E-24
 -3.9999999E-05    9.9999923E-25
 -4.9999999E-06    9.9999923E-25
  2.9999999E-05    1.0000001E-24
  6.5000000E-05    1.0000004E-24
  9.9999997E-05    9.9999982E-25
  1.3499999E-04    9.9999963E-25
  1.7000000E-04    9.9999992E-25
  2.0500000E-04    9.9999982E-25
  2.3999999E-04    1.0000000E-24
  2.7500000E-04    1.0000007E-24
  3.1000000E-04    1.0000001E-24
  3.4500001E-04    9.9999923E-25
  3.8000001E-04    9.9999972E-25
  4.1499999E-04    1.0000003E-24
  4.4999999E-04    1.0000007E-24
  4.8500000E-04    1.0000008E-24
  5.2000000E-04    1.0000003E-24
  5.5499998E-04    1.0000005E-24
  5.9000001E-04    1.0000008E-24
  6.2499999E-04    1.0000000E-24
  6.6000002E-04    9.9999923E-25
  6.9500000E-04    9.9999963E-25
  7.3000003E-04    9.9999982E-25
  7.6500000E-04    9.9999943E-25
  7.9999998E-04    9.9999953E-25
  8.3500001E-04    1.0000001E-24
  8.6999999E-04    1.0000007E-24
  9.0500002E-04    1.0000007E-24
  9.4000000E-04    1.0000004E-24
  9.7499997E-04    1.0000003E-24
  1.0100000E-03    9.9999992E-25
  1.0450000E-03    9.9999943E-25
  1.0800000E-03    9.9999992E-25
  1.1150000E-03    1.0000008E-24
  1.1500000E-03    1.0000006E-24
  1.1849999E-03    1.0000001E-24
  1.2200000E-03    9.9999992E-25
  1.2550000E-03    9.9999992E-25
  1.2900000E-03    1.0000001E-24
  1.3250000E-03    1.0000000E-24
  1.3600000E-03    1.0000001E-24
  1.3950000E-03    1.0000002E-24
  1.4299999E-03    9.9999963E-25
  1.4650000E-03    9.9999913E-25
  1.5000000E-03    1.0000002E-24
  1.5350000E-03    1.0000009E-24
  1.5700000E-03    9.9999963E-25
  1.6050000E-03    9.9999903E-25
  1.6400000E-03    1.0000001E-24
  1.6749999E-03    1.0000005E-24
  1.7100000E-03    1.0000003E-24
  1.7450000E-03    1.0000005E-24
  1.7800000E-03    1.0000005E-24
  1.8150000E-03    1.0000001E-24
  1.8500000E-03    9.9999963E-25
  1.8850000E-03    9.9999943E-25
  1.9200000E-03    9.9999982E-25
  1.9550000E-03    1.0000004E-24
  1.9900000E-03    1.0000009E-24
  2.0250001E-03    1.0000010E-24
  2.0600001E-03    1.0000005E-24
  2.0949999E-03    9.9999963E-25
  2.1299999E-03    9.9999923E-25
  2.1650000E-03    9.9999992E-25
  2.2000000E-03    1.0000004E-24
  2.2350000E-03    1.0000001E-24
  2.2700001E-03    9.9999992E-25
  2.3050001E-03    1.0000005E-24
  2.3399999E-03    1.0000008E-24
  2.3749999E-03    9.9999963E-25
  2.4100000E-03    9.9999874E-25
  2.4450000E-03    9.9999982E-25
  2.4800000E-03    1.0000011E-24
  2.5150001E-03    1.0000007E-24
  2.5500001E-03    1.0000001E-24
  2.5849999E-03    1.0000000E-24
  2.6199999E-03    1.0000000E-24
  2.6550000E-03    1.0000000E-24
  2.6900000E-03    1.0000000E-24
  2.7250000E-03    1.0000002E-24
  2.7600001E-03    1.0000004E-24
  2.7950001E-03    1.0000003E-24
  2.8299999E-03    1.0000003E-24
  2.8649999E-03    1.0000006E-24
  2.9000000E-03    1.0000011E-24
  2.9350000E-03    1.0000010E-24
  2.9700000E-03    1.0000002E-24
  3.0050001E-03    9.9999893E-25
  3.0400001E-03    9.9999805E-25
  3.0749999E-03    9.9999874E-25
  3.1099999E-03    1.0000005E-24
  3.1450000E-03    1.0000007E-24
  3.1800000E-03    9.9999982E-25
  3.2150000E-03    9.9999972E-25
  3.2500001E-03    1.0000000E-24
  3.2850001E-03    1.0000006E-24
  3.3199999E-03    1.0000015E-24
  3.3549999E-03    1.0000009E-24
  3.3900000E-03    9.9999874E-25
  3.4250000E-03    9.9999884E-25
  3.4600000E-03    1.0000005E-24
  3.4950001E-03    1.0000011E-24
  3.5300001E-03    1.0000013E-24
  3.5649999E-03    1.0000009E-24
  3.5999999E-03    9.9999963E-25
  3.6350000E-03    9.9999933E-25
  3.6700000E-03    1.0000001E-24
  3.7050000E-03    1.0000003E-24
  3.7400001E-03    1.0000001E-24
  3.7750001E-03    1.0000001E-24
  3.8099999E-03    1.0000002E-24
  3.8449999E-03    1.0000002E-24
  3.8800000E-03    1.0000000E-24
  3.9149998E-03    9.9999903E-25
  3.9499998E-03    9.9999864E-25
  3.9849998E-03    9.9999923E-25
  4.0199999E-03    1.0000006E-24
  4.0549999E-03    1.0000015E-24
  4.0899999E-03    1.0000006E-24
  4.1250000E-03    9.9999874E-25
  4.1600000E-03    9.9999893E-25
  4.1950000E-03    1.0000009E-24
  4.2300001E-03    1.0000017E-24
  4.2650001E-03    1.0000010E-24
  4.3000001E-03    9.9999972E-25
  4.3350002E-03    9.9999933E-25
  4.3700002E-03    1.0000007E-24
  4.4049998E-03    1.0000017E-24
  4.4399998E-03    1.0000001E-24
  4.4749998E-03    9.9999864E-25
  4.5099999E-03    9.9999913E-25
  4.5449999E-03    1.0000004E-24
  4.5799999E-03    1.0000013E-24
  4.6150000E-03    1.0000004E-24
  4.6500000E-03    9.9999854E-25
  4.6850001E-03    9.9999903E-25
  4.7200001E-03    1.0000006E-24
  4.7550001E-03    1.0000006E-24
  4.7900002E-03    1.0000005E-24
  4.8250002E-03    1.0000006E-24
  4.8600002E-03    9.9999884E-25
  4.8949998E-03    9.9999795E-25
  4.9299998E-03    9.9999953E-25
  4.9649999E-03    1.0000011E-24
  4.9999999E-03    1.0000013E-24
  5.0349999E-03    1.0000010E-24
  5.0700000E-03    9.9999982E-25
  5.1050000E-03    9.9999874E-25
  5.1400000E-03    9.9999923E-25
  5.1750001E-03    1.0000007E-24
  5.2100001E-03    1.0000014E-24
  5.2450001E-03    1.0000005E-24
  5.2800002E-03    9.9999913E-25
  5.3150002E-03    9.9999903E-25
  5.3500002E-03    1.0000006E-24
  5.3849998E-03    1.0000015E-24
  5.4199998E-03    1.0000006E-24
  5.4549999E-03    9.9999943E-25
  5.4899999E-03    9.9999923E-25
  5.5249999E-03    9.9999992E-25
  5.5600000E-03    1.0000006E-24
  5.5950000E-03    1.0000003E-24
  5.6300000E-03    1.0000001E-24
  5.6650001E-03    1.0000003E-24
  5.7000001E-03    9.9999982E-25
  5.7350001E-03    9.9999864E-25
  5.7700002E-03    9.9999903E-25
  5.8050002E-03    1.0000013E-24
  5.8400002E-03    1.0000023E-24
  5.8749998E-03    1.0000007E-24
  5.9099998E-03    9.9999805E-25
  5.9449999E-03    9.9999765E-25
  5.9799999E-03    9.9999972E-25
  6.0149999E-03    1.0000017E-24
  6.0500000E-03    1.0000019E-24
  6.0850000E-03    1.0000005E-24
  6.1200000E-03    9.9999864E-25
  6.1550001E-03    9.9999933E-25
  6.1900001E-03    1.0000011E-24
  6.2250001E-03    1.0000004E-24
  6.2600002E-03    9.9999893E-25
  6.2950002E-03    1.0000002E-24
  6.3299998E-03    1.0000011E-24
  6.3649998E-03    9.9999943E-25
  6.3999998E-03    9.9999854E-25
  6.4349999E-03    9.9999943E-25
  6.4699999E-03    9.9999992E-25
  6.5049999E-03    1.0000006E-24
  6.5400000E-03    1.0000017E-24
  6.5750000E-03    1.0000012E-24
  6.6100000E-03    9.9999963E-25
  6.6450001E-03    1.0000000E-24
  6.6800001E-03    1.0000012E-24
  6.7150001E-03    1.0000000E-24
  6.7500002E-03    9.9999726E-25
  6.7850002E-03    9.9999824E-25
  6.8199998E-03    1.0000046E-24
  6.8549998E-03    1.0000053E-24
  6.8899998E-03    9.9999460E-25
  6.9249999E-03    9.9998898E-25
  6.9599999E-03    1.0000049E-24
  6.9949999E-03    1.0000181E-24
  7.0300000E-03    9.9999608E-25
  7.0650000E-03    9.9997063E-25
  7.1000000E-03    1.0000011E-24
  7.1350001E-03    1.0000486E-24
  7.1700001E-03    1.0000084E-24
  7.2050001E-03    9.9992202E-25
  7.2400002E-03    9.9997073E-25
  7.2750002E-03    1.0001234E-24
  7.3099998E-03    1.0000754E-24
  7.3449998E-03    9.9981405E-25
  7.3799998E-03    9.9983732E-25
  7.4149999E-03    1.0002695E-24
  7.4499999E-03    1.0003226E-24
  7.4850000E-03    9.9962906E-25
  7.5200000E-03    9.9939279E-25
  7.5550000E-03    1.0004697E-24
  7.5900001E-03    1.0010920E-24
  7.6250001E-03    9.9948568E-25
  7.6600001E-03    9.9811632E-25
  7.6950002E-03    1.0003965E-24
  7.7300002E-03    1.0031231E-24
  7.7650002E-03    1.0000869E-24
  7.7999998E-03    9.9501343E-25
  7.8349998E-03    9.9869367E-25
  7.8699999E-03    1.0076616E-24
  7.9049999E-03    1.0039052E-24
  7.9399999E-03    9.8873361E-25
  7.9750000E-03    9.9107840E-25
  8.0100000E-03    1.0157125E-24
  8.0450000E-03    1.0179614E-24
  8.0800001E-03    9.7956872E-25
  8.1150001E-03    9.6661207E-25
  8.1500001E-03    1.0238882E-24
  8.1850002E-03    1.0584666E-24
  8.2200002E-03    9.7720460E-25
  8.2550002E-03    9.0264058E-25
  8.2900003E-03    1.0109046E-24
  8.3250003E-03    1.1547801E-24
  8.3600003E-03    1.0227771E-24
  8.3950004E-03    7.6509613E-25
  8.4300004E-03    9.0362222E-25
  8.4650004E-03    1.3389919E-24
  8.5000005E-03    1.2381025E-24
  8.5349996E-03    5.3913062E-25
  8.5699996E-03    5.1066605E-25
  8.6049996E-03    1.5791152E-24
  8.6399997E-03    1.9069752E-24
  8.6749997E-03    3.5553749E-25
  8.7099997E-03   -5.6307782E-25
  8.7449998E-03    1.5608810E-24
  8.7799998E-03    3.5383894E-24
  8.8149998E-03    8.4091705E-25
  8.8499999E-03   -2.9043350E-24
  8.8849999E-03    1.6240067E-25
  8.9199999E-03    6.6851875E-24
  8.9550000E-03    3.8522677E-24
  8.9900000E-03   -6.7891050E-24
  9.0250000E-03   -5.4907587E-24
  9.0600001E-03    1.0893725E-23
  9.0950001E-03    1.3558719E-23
  9.1300001E-03   -1.0270780E-23
  9.1650002E-03   -2.1030306E-23
  9.2000002E-03    1.1536570E-23
  9.2350002E-03    3.6920296E-23
  9.2700003E-03   -4.3257984E-24
  9.3050003E-03   -5.3989135E-23
  9.3400003E-03   -7.0915527E-24
  9.3750004E-03    8.0183066E-23
  9.4100004E-03    3.6186119E-23
  9.4450004E-03   -1.0569008E-22
  9.4799995E-03   -8.2405123E-23
  9.5149996E-03    1.3348347E-22
  9.5499996E-03    1.6302798E-22
  9.5849996E-03   -1.4525211E-22
  9.6199997E-03   -2.8026161E-22
  9.6549997E-03    1.3070403E-22
  9.6899997E-03    4.5101816E-22
  9.7249998E-03   -5.2421186E-23
  9.7599998E-03   -6.7063900E-22
  9.7949998E-03   -1.2521494E-22
  9.8299999E-03    9.3769253E-22
  9.8649999E-03    4.6997339E-22
  9.8999999E-03   -1.2109763E-21
  9.9350000E-03   -1.0487923E-21
  9.9700000E-03    1.4261224E-21
  1.0005000E-02    1.9530447E-21
  1.0040000E-02   -1.4439972E-21
  1.0075000E-02   -3.2501748E-21
  1.0110000E-02    1.0605165E-21
  1.0145000E-02    4.9847273E-21
  1.0180000E-02    4.5971273E-23
  1.0215000E-02   -7.0953105E-21
  1.0250000E-02   -2.2938958E-21
  1.0285000E-02    9.3707107E-21
  1.0320000E-02    6.2195815E-21
  1.0355000E-02   -1.1314942E-20
  1.0390000E-02   -1.2393549E-20
  1.0425000E-02    1.2053299E-20
  1.0460000E-02    2.1335528E-20
  1.0495000E-02   -1.0165722E-20
  1.0530000E-02   -3.3271124E-20
  1.0565000E-02    3.6066383E-21
  1.0600000E-02    4.7829738E-20
  1.0635000E-02    1.0363479E-20
  1.0670000E-02   -6.3535937E-20
  1.0705000E-02   -3.5025412E-20
  1.0740000E-02    7.7225194E-20
  1.0775000E-02    7.3844397E-20
  1.0810000E-02   -8.3302419E-20
  1.0845000E-02   -1.2964676E-19
  1.0880000E-02    7.3083688E-20
  1.0915000E-02    2.0331337E-19
  1.0950000E-02   -3.4304266E-20
  1.0985000E-02   -2.9174883E-19
  1.1020000E-02   -4.8751311E-20
  1.1055000E-02    3.8521858E-19
  1.1090000E-02    1.9416404E-19
  1.1125000E-02   -4.6405577E-19
  1.1160000E-02   -4.1963364E-19
  1.1195000E-02    4.9526064E-19
  1.1230000E-02    7.3757219E-19
  1.1265000E-02   -4.2963409E-19
  1.1300000E-02   -1.1473491E-18
  1.1335000E-02    2.0083179E-19
  1.1370000E-02    1.6245522E-18
  1.1405000E-02    2.7200873E-19
  1.1440000E-02   -2.1074560E-18
  1.1475000E-02   -1.0756625E-18
  1.1510000E-02    2.4821314E-18
  1.1545000E-02    2.2858402E-18
  1.1580000E-02   -2.5687883E-18
  1.1615000E-02   -3.9393769E-18
  1.1650000E-02    2.1139783E-18
  1.1685000E-02    5.9943446E-18
  1.1720000E-02   -7.9506005E-19
  1.1755000E-02   -8.2787222E-18
  1.1790000E-02   -1.7546412E-18
  1.1825000E-02    1.0431904E-17
  1.1860000E-02    5.8906886E-18
  1.1895000E-02   -1.1848048E-17
  1.1930000E-02   -1.1863517E-17
  1.1965000E-02    1.1636912E-17
  1.2000000E-02    1.9680089E-17
  1.2035000E-02   -8.6244109E-18
  1.2070000E-02   -2.8922628E-17
  1.2105000E-02    1.4217530E-18
  1.2140000E-02    3.8537673E-17
  1.2175000E-02    1.1404620E-17
  1.2210000E-02   -4.6625081E-17
  1.2245000E-02   -3.1031790E-17
  1.2280000E-02    5.0277579E-17
  1.2315000E-02    5.7928113E-17
  1.2350000E-02   -4.5544187E-17
  1.2385000E-02   -9.1253361E-17
  1.2420000E-02    2.7610538E-17
  1.2455000E-02    1.2815193E-16
  1.2490000E-02    8.6994353E-18
  1.2525000E-02   -1.6303281E-16
  1.2560000E-02   -6.8003405E-17
  1.2595000E-02    1.8699418E-16
  1.2630000E-02    1.5295990E-16
  1.2665000E-02   -1.8762031E-16
  1.2700000E-02   -2.6239628E-16
  1.2735000E-02    1.4943791E-16
  1.2770000E-02    3.8909250E-16
  1.2805000E-02   -5.5344365E-17
  1.2840000E-02   -5.1750383E-16
  1.2875000E-02   -1.1069985E-16
  1.2910000E-02    6.2189858E-16
  1.2945000E-02    3.5954230E-16
  1.2980000E-02   -6.6558044E-16
  1.3015000E-02   -6.9130838E-16
  1.3050000E-02    6.0203333E-16
  1.3085000E-02    1.0888620E-15
  1.3120000E-02   -3.7887511E-16
  1.3155000E-02   -1.5110835E-15
  1.3190000E-02   -5.4572357E-17
  1.3225000E-02    1.8873429E-15
  1.3260000E-02    7.3566108E-16
  1.3295000E-02   -2.1150497E-15
  1.3330000E-02   -1.6729058E-15
  1.3365000E-02    2.0625805E-15
  1.3400000E-02    2.8277630E-15
  1.3435000E-02   -1.5799687E-15
  1.3470000E-02   -4.0960336E-15
  1.3505000E-02    5.1939896E-16
  1.3540000E-02    5.2927019E-15
  1.3575000E-02    1.2334636E-15
  1.3610000E-02   -6.1452651E-15
  1.3645000E-02   -3.7181108E-15
  1.3680000E-02    6.3015245E-15
  1.3715000E-02    6.8510985E-15
  1.3750000E-02   -5.3578578E-15
  1.3785000E-02   -1.0377749E-14
  1.3820000E-02    2.9128190E-15
  1.3855000E-02    1.3833604E-14
  1.3890000E-02    1.3520935E-15
  1.3925000E-02   -1.6528559E-14
  1.3960000E-02   -7.5672111E-15
  1.3995000E-02    1.7568481E-14
  1.4030000E-02    1.5554620E-14
  1.4065000E-02   -1.5928350E-14
  1.4100000E-02   -2.4710143E-14
  1.4135000E-02    1.0587421E-14
  1.4170000E-02    3.3912638E-14
  1.4205000E-02   -7.2895354E-16
  1.4240000E-02   -4.1491875E-14
  1.4275000E-02   -1.4005117E-14
  1.4310000E-02    4.5289483E-14
  1.4345000E-02    3.3230102E-14
  1.4380000E-02   -4.2843465E-14
  1.4415000E-02   -5.5547967E-14
  1.4450000E-02    3.1717166E-14
  1.4485000E-02    7.8350825E-14
  1.4520000E-02   -9.9713320E-15
  1.4555000E-02   -9.7770038E-14
  1.4590000E-02   -2.3249098E-14
  1.4625000E-02    1.0884622E-13
  1.4660000E-02    6.7080273E-14
  1.4695000E-02   -1.0598168E-13
  1.4730000E-02   -1.1835911E-13
  1.4765000E-02    8.3708736E-14
  1.4800000E-02    1.7123565E-13
  1.4835000E-02   -3.7756219E-14
  1.4870000E-02   -2.1713215E-13
  1.4905000E-02   -3.3668381E-14
  1.4940000E-02    2.4520140E-13
  1.4975000E-02    1.2854251E-13
  1.5010000E-02   -2.4339642E-13
  1.5045000E-02   -2.3987271E-13
  1.5080000E-02    2.0018916E-13
  1.5115000E-02    3.5501276E-13
  1.5150000E-02   -1.0686353E-13
  1.5185000E-02   -4.5577068E-13
  1.5220000E-02   -3.9835966E-14
  1.5255000E-02    5.1958362E-13
  1.5290000E-02    2.3506715E-13
  1.5325000E-02   -5.2193872E-13
  1.5360000E-02   -4.6377089E-13
  1.5395000E-02    4.4003906E-13
  1.5430000E-02    6.9965800E-13
  1.5465000E-02   -2.5747327E-13
  1.5500000E-02   -9.0588523E-13
  1.5535000E-02   -3.0628613E-14
  1.5570000E-02    1.0378958E-12
  1.5605000E-02    4.1275438E-13
  1.5640000E-02   -1.0486316E-12
  1.5675001E-02   -8.5749918E-13
  1.5710000E-02    8.9594407E-13
  1.5745001E-02    1.3124575E-12
  1.5780000E-02   -5.5158168E-13
  1.5814999E-02   -1.7065579E-12
  1.5850000E-02    1.0565905E-14
  1.5884999E-02    1.9564738E-12
  1.5920000E-02    7.0061795E-13
  1.5954999E-02   -1.9772426E-12
  1.5990000E-02   -1.5189142E-12
  1.6024999E-02    1.6964286E-12
  1.6060000E-02    2.3445451E-12
  1.6094999E-02   -1.0703160E-12
  1.6130000E-02   -3.0473278E-12
  1.6164999E-02    9.9774735E-14
  1.6200000E-02    3.4802233E-12
  1.6235000E-02    1.1572177E-12
  1.6270000E-02   -3.4996893E-12
  1.6305000E-02   -2.5795848E-12
  1.6340001E-02    2.9910803E-12
  1.6375000E-02    3.9866396E-12
  1.6410001E-02   -1.8958361E-12
  1.6445000E-02   -5.1529523E-12
  1.6480001E-02    2.3605369E-13
  1.6515000E-02    5.8349731E-12
  1.6550001E-02    1.8687725E-12
  1.6585000E-02   -5.8075688E-12
  1.6620001E-02   -4.1977906E-12
  1.6655000E-02    4.9064212E-12
  1.6690001E-02    6.4415656E-12
  1.6725000E-02   -3.0700488E-12
  1.6759999E-02   -8.2333237E-12
  1.6795000E-02    3.7378518E-13
  1.6829999E-02    9.1974258E-12
  1.6865000E-02    2.9523233E-12
  1.6899999E-02   -9.0102431E-12
  1.6935000E-02   -6.5285364E-12
  1.6969999E-02    7.4652715E-12
  1.7005000E-02    9.8575531E-12
  1.7039999E-02   -4.5315808E-12
  1.7075000E-02   -1.2383666E-11
  1.7109999E-02    3.9374068E-13
  1.7145000E-02    1.3573928E-11
  1.7180000E-02    4.5378315E-12
  1.7215000E-02   -1.3010994E-11
  1.7250000E-02   -9.6537093E-12
  1.7285001E-02    1.0483171E-11
  1.7320000E-02    1.4211708E-11
  1.7355001E-02   -6.0548038E-12
  1.7390000E-02   -1.7437659E-11
  1.7425001E-02    1.0089171E-13
  1.7460000E-02    1.8648579E-11
  1.7495001E-02    6.7065685E-12
  1.7530000E-02   -1.7379603E-11
  1.7565001E-02   -1.3465828E-11
  1.7600000E-02    1.3492271E-11
  1.7635001E-02    1.9162349E-11
  1.7670000E-02   -7.2417289E-12
  1.7704999E-02   -2.2821516E-11
  1.7740000E-02   -7.1519087E-13
  1.7774999E-02    2.3674479E-11
  1.7810000E-02    9.3804738E-12
  1.7844999E-02   -2.1308592E-11
  1.7880000E-02   -1.7541626E-11
  1.7914999E-02    1.5773403E-11
  1.7950000E-02    2.3949573E-11
  1.7984999E-02   -7.6177224E-12
  1.8020000E-02   -2.7520729E-11
  1.8054999E-02   -2.1560282E-12
  1.8090000E-02    2.7529272E-11
  1.8124999E-02    1.2219980E-11
  1.8160000E-02   -2.3753652E-11
  1.8195000E-02   -2.1115359E-11
  1.8230001E-02    1.6547019E-11
  1.8265000E-02    2.7483328E-11
  1.8300001E-02   -6.8132284E-12
  1.8335000E-02   -3.0292793E-11
  1.8370001E-02   -4.1131777E-12
  1.8405000E-02    2.9023900E-11
  1.8440001E-02    1.4666551E-11
  1.8475000E-02   -2.3772317E-11
  1.8510001E-02   -2.3297468E-11
  1.8545000E-02    1.5251836E-11
  1.8580001E-02    2.8724786E-11
  1.8615000E-02   -4.6920965E-12
  1.8650001E-02   -3.0148040E-11
  1.8685000E-02   -6.3530049E-12
  1.8719999E-02    2.7381694E-11
  1.8755000E-02    1.6253297E-11
  1.8789999E-02   -2.0887268E-11
  1.8825000E-02   -2.3563798E-11
  1.8859999E-02    1.1697900E-11
  1.8895000E-02    2.7254369E-11
  1.8929999E-02   -1.2493496E-12
  1.8965000E-02   -2.6868941E-11
  1.8999999E-02   -8.8522592E-12
  1.9035000E-02    2.2589177E-11
  1.9069999E-02    1.7085708E-11
  1.9105000E-02   -1.5194797E-11
  1.9140000E-02   -2.2250592E-11
  1.9175000E-02    5.9306908E-12
  1.9210000E-02    2.3646762E-11
  1.9245001E-02    3.6942151E-12
  1.9280000E-02   -2.1172147E-11
  1.9315001E-02   -1.2142739E-11
  1.9350000E-02    1.5327836E-11
  1.9385001E-02    1.8083268E-11
  1.9420000E-02   -7.1336886E-12
  1.9455001E-02   -2.0587991E-11
  1.9490000E-02   -2.0297050E-12
  1.9525001E-02    1.9269397E-11
  1.9560000E-02    1.0628453E-11
  1.9595001E-02   -1.4338482E-11
  1.9630000E-02   -1.7203298E-11
  1.9664999E-02    6.5785580E-12
  1.9700000E-02    2.0588177E-11
  1.9734999E-02    2.7620824E-12
  1.9770000E-02   -2.0090023E-11
  1.9804999E-02   -1.2144540E-11
  1.9840000E-02    1.5606384E-11
  1.9874999E-02    1.9959744E-11
  1.9910000E-02   -7.6633647E-12
  1.9944999E-02   -2.4767558E-11
  1.9980000E-02   -2.6347583E-12
  2.0014999E-02    2.5523533E-11
  2.0050000E-02    1.3743809E-11
  2.0085000E-02   -2.1758671E-11
  2.0120000E-02   -2.3890261E-11
  2.0155000E-02    1.3683239E-11
  2.0190001E-02    3.1326528E-11
  2.0225000E-02   -2.1963336E-12
  2.0260001E-02   -3.4596808E-11
  2.0295000E-02   -1.1204684E-11
  2.0330001E-02    3.2777895E-11
  2.0365000E-02    2.4611100E-11
  2.0400001E-02   -2.5655564E-11
  2.0435000E-02   -3.5964554E-11
  2.0470001E-02    1.3803512E-11
  2.0505000E-02    4.3354841E-11
  2.0540001E-02    1.4489607E-12
  2.0575000E-02   -4.5311966E-11
  2.0609999E-02   -1.8157175E-11
  2.0645000E-02    4.1058164E-11
  2.0679999E-02    3.4002169E-11
  2.0715000E-02   -3.0680441E-11
  2.0749999E-02   -4.6610951E-11
  2.0785000E-02    1.5184914E-11
  2.0819999E-02    5.3910005E-11
  2.0855000E-02    3.5831592E-12
  2.0889999E-02   -5.4460367E-11
  2.0925000E-02   -2.3145737E-11
  2.0959999E-02    4.7736707E-11
  2.0995000E-02    4.0720319E-11
  2.1029999E-02   -3.4300413E-11
  2.1065000E-02   -5.3650438E-11
  2.1100000E-02    1.5798621E-11
  2.1135001E-02    5.9863003E-11
  2.1170000E-02    5.2372273E-12
  2.1205001E-02   -5.8254720E-11
  2.1240000E-02   -2.5757306E-11
  2.1275001E-02    4.8950677E-11
  2.1310000E-02    4.2688686E-11
  2.1345001E-02   -3.3379417E-11
  2.1380000E-02   -5.3520348E-11
  2.1415001E-02    1.4070529E-11
  2.1450000E-02    5.6837219E-11
  2.1485001E-02    5.8408365E-12
  2.1520000E-02   -5.2610916E-11
  2.1555001E-02   -2.3255928E-11
  2.1590000E-02    4.2180117E-11
  2.1624999E-02    3.5737528E-11
  2.1660000E-02   -2.7960955E-11
  2.1694999E-02   -4.2043823E-11
  2.1730000E-02    1.2871754E-11
  2.1764999E-02    4.2417486E-11
  2.1800000E-02    4.7488099E-13
  2.1834999E-02   -3.8397129E-11
  2.1870000E-02   -1.0490573E-11
  2.1904999E-02    3.2181827E-11
  2.1940000E-02    1.6915183E-11
  2.1974999E-02   -2.5874530E-11
  2.2010000E-02   -2.0717029E-11
  2.2045000E-02    2.0796923E-11
  2.2080000E-02    2.3669294E-11
  2.2115000E-02   -1.6932284E-11
  2.2150001E-02   -2.7506431E-11
  2.2185000E-02    1.2840366E-11
  2.2220001E-02    3.2873836E-11
  2.2255000E-02   -6.3697107E-12
  2.2290001E-02   -3.8758038E-11
  2.2325000E-02   -4.2167129E-12
  2.2360001E-02    4.2697023E-11
  2.2395000E-02    1.9332907E-11
  2.2430001E-02   -4.1420041E-11
  2.2465000E-02   -3.7421892E-11
  2.2500001E-02    3.1853270E-11
  2.2535000E-02    5.4637194E-11
  2.2569999E-02   -1.2675016E-11
  2.2605000E-02   -6.5576967E-11
  2.2639999E-02   -1.4336234E-11
  2.2675000E-02    6.5187092E-11
  2.2709999E-02    4.4312679E-11
  2.2745000E-02   -5.0609641E-11
  2.2779999E-02   -7.0436781E-11
  2.2815000E-02    2.2209998E-11
  2.2849999E-02    8.5313111E-11
  2.2885000E-02    1.5727071E-11
  2.2919999E-02   -8.2923522E-11
  2.2955000E-02   -5.5055644E-11
  2.2990000E-02    6.1270815E-11
  2.3025000E-02    8.5894986E-11
  2.3060000E-02   -2.3753626E-11
  2.3095001E-02   -9.9905272E-11
  2.3130000E-02   -2.1848958E-11
  2.3165001E-02    9.2476297E-11
  2.3200000E-02    6.5291252E-11
  2.3235001E-02   -6.3752621E-11
  2.3270000E-02   -9.5676425E-11
  2.3305001E-02    1.9671854E-11
  2.3340000E-02    1.0462647E-10
  2.3375001E-02    2.8738560E-11
  2.3410000E-02   -8.9937682E-11
  2.3445001E-02   -6.9380307E-11
  2.3480000E-02    5.5897707E-11
  2.3514999E-02    9.2744437E-11
  2.3550000E-02   -1.1468122E-11
  2.3584999E-02   -9.4117859E-11
  2.3620000E-02   -3.2625000E-11
  2.3654999E-02    7.3148425E-11
  2.3690000E-02    6.3695639E-11
  2.3724999E-02   -3.8394215E-11
  2.3760000E-02   -7.5968898E-11
  2.3794999E-02   -7.0814611E-13
  2.3830000E-02    6.6497405E-11
  2.3864999E-02    2.9851954E-11
  2.3900000E-02   -4.5609759E-11
  2.3934999E-02   -4.8503458E-11
  2.3970000E-02    1.3618650E-11
  2.4005000E-02    4.4113199E-11
  2.4040001E-02    7.5753544E-12
  2.4075000E-02   -3.4334629E-11
  2.4110001E-02   -2.7919797E-11
  2.4145000E-02    4.6376731E-12
  2.4180001E-02    1.6226196E-11
  2.4215000E-02   -1.4706560E-13
  2.4250001E-02   -2.0335560E-11
  2.4285000E-02   -2.7184258E-11
  2.4320001E-02   -1.8609732E-11
  2.4355000E-02   -3.0097795E-12
  2.4390001E-02   -6.4472684E-13
  2.4425000E-02   -2.5048972E-11
  2.4460001E-02   -5.4100131E-11
  2.4495000E-02   -5.0468022E-11
  2.4529999E-02   -2.1601941E-11
  2.4565000E-02   -2.0251464E-11
  2.4599999E-02   -6.4806063E-11
  2.4635000E-02   -1.0300795E-10
  2.4669999E-02   -9.1060576E-11
  2.4705000E-02   -6.7484449E-11
  2.4739999E-02   -9.4819694E-11
  2.4775000E-02   -1.5820381E-10
  2.4809999E-02   -1.8962235E-10
  2.4845000E-02   -1.8040787E-10
  2.4879999E-02   -1.9418375E-10
  2.4915000E-02   -2.5987520E-10
  2.4950000E-02   -3.2794359E-10
  2.4985000E-02   -3.6137926E-10
  2.5020000E-02   -3.9934181E-10
  2.5055001E-02   -4.8400201E-10
  2.5090000E-02   -5.8579336E-10
  2.5125001E-02   -6.6288958E-10
  2.5160000E-02   -7.4503492E-10
  2.5195001E-02   -8.8396418E-10
  2.5230000E-02   -1.0567843E-09
  2.5265001E-02   -1.2043401E-09
  2.5300000E-02   -1.3462462E-09
  2.5335001E-02   -1.5628581E-09
  2.5370000E-02   -1.8606838E-09
  2.5405001E-02   -2.1550115E-09
  2.5440000E-02   -2.4149032E-09
  2.5474999E-02   -2.7310265E-09
  2.5510000E-02   -3.1830183E-09
  2.5544999E-02   -3.7169621E-09
  2.5580000E-02   -4.2349426E-09
  2.5614999E-02   -4.7588773E-09
  2.5650000E-02   -5.4130012E-09
  2.5684999E-02   -6.2516547E-09
  2.5720000E-02   -7.1904807E-09
  2.5754999E-02   -8.1414067E-09
  2.5790000E-02   -9.1588799E-09
  2.5824999E-02   -1.0389662E-08
  2.5860000E-02   -1.1887167E-08
  2.5895000E-02   -1.3546269E-08
  2.5930000E-02   -1.5269665E-08
  2.5965000E-02   -1.7149272E-08
  2.6000001E-02   -1.9383984E-08
  2.6035000E-02   -2.2018297E-08
  2.6070001E-02   -2.4892207E-08
  2.6105000E-02   -2.7918661E-08
  2.6140001E-02   -3.1283495E-08
  2.6175000E-02   -3.5230549E-08
  2.6210001E-02   -3.9737937E-08
  2.6245000E-02   -4.4603166E-08
  2.6280001E-02   -4.9827996E-08
  2.6315000E-02   -5.5699733E-08
  2.6350001E-02   -6.2431454E-08
  2.6385000E-02   -6.9925676E-08
  2.6419999E-02   -7.8030105E-08
  2.6455000E-02   -8.6877797E-08
  2.6489999E-02   -9.6789698E-08
  2.6525000E-02   -1.0791209E-07
  2.6559999E-02   -1.2014722E-07
  2.6595000E-02   -1.3345451E-07
  2.6629999E-02   -1.4805383E-07
  2.6665000E-02   -1.6425281E-07
  2.6699999E-02   -1.8218046E-07
  2.6735000E-02   -2.0180788E-07
  2.6769999E-02   -2.2320000E-07
  2.6805000E-02   -2.4663220E-07
  2.6839999E-02   -2.7242055E-07
  2.6875000E-02   -3.0072096E-07
  2.6910000E-02   -3.3158378E-07
  2.6945001E-02   -3.6517653E-07
  2.6980000E-02   -4.0184815E-07