 -4.8000002E-03    1.0000000E-24
 -4.7650002E-03    1.0000002E-24
 -4.7300002E-03    1.0000001E-24
 -4.6950001E-03    1.0000000E-24
 -4.6600001E-03    1.0000003E-24
 -4.6250001E-03    1.0000001E-24
 -4.5900000E-03    9.9999992E-25
 -4.5550000E-03    1.0000002E-24
 -4.5200000E-03    1.0000001E-24
 -4.4849999E-03    9.9999963E-25
 -4.4499999E-03    1.0000000E-24
 -4.4149999E-03    1.0000006E-24
 -4.3799998E-03    1.0000003E-24
 -4.3449998E-03    1.0000000E-24
 -4.3100002E-03    1.0000000E-24
 -4.2750002E-03    1.0000000E-24
 -4.2400002E-03    9.9999992E-25
 -4.2050001E-03    1.0000000E-24
 -4.1700001E-03    1.0000001E-24
 -4.1350001E-03    1.0000004E-24
 -4.1000000E-03    1.0000004E-24
 -4.0650000E-03    1.0000000E-24
 -4.0300000E-03    9.9999953E-25
 -3.9949999E-03    9.9999972E-25
 -3.9599999E-03    1.0000001E-24
 -3.9249999E-03    1.0000000E-24
 -3.8900001E-03    9.9999992E-25
 -3.8550000E-03    1.0000000E-24
 -3.8200000E-03    1.0000003E-24
 -3.7849999E-03    1.0000005E-24
 -3.7499999E-03    1.0000001E-24
 -3.7150001E-03    9.9999972E-25
 -3.6800001E-03    9.9999982E-25
 -3.6450000E-03    1.0000003E-24
 -3.6100000E-03    1.0000004E-24
 -3.5750000E-03    1.0000000E-24
 -3.5399999E-03    9.9999972E-25
 -3.5049999E-03    9.9999992E-25
 -3.4700001E-03    9.9999992E-25
 -3.4350001E-03    9.9999992E-25
 -3.4000000E-03    1.0000000E-24
 -3.3650000E-03    1.0000003E-24
 -3.3300000E-03    1.0000011E-24
 -3.2949999E-03    1.0000005E-24
 -3.2599999E-03    9.9999923E-25
 -3.2250001E-03    9.9999953E-25
 -3.1900001E-03    1.0000007E-24
 -3.1550000E-03    9.9999992E-25
 -3.1200000E-03    9.9999893E-25
 -3.0850000E-03    1.0000005E-24
 -3.0499999E-03    1.0000012E-24
 -3.0149999E-03    9.9999953E-25
 -2.9800001E-03    9.9999953E-25
 -2.9450001E-03    1.0000012E-24
 -2.9100000E-03    1.0000005E-24
 -2.8750000E-03    9.9999913E-25
 -2.8400000E-03    1.0000003E-24
 -2.8049999E-03    1.0000008E-24
 -2.7699999E-03    9.9999923E-25
 -2.7350001E-03    9.9999933E-25
 -2.7000001E-03    1.0000008E-24
 -2.6650000E-03    1.0000002E-24
 -2.6300000E-03    9.9999884E-25
 -2.5950000E-03    1.0000001E-24
 -2.5599999E-03    1.0000013E-24
 -2.5249999E-03    1.0000003E-24
 -2.4900001E-03    9.9999953E-25
 -2.4550001E-03    1.0000000E-24
 -2.4200000E-03    1.0000002E-24
 -2.3850000E-03    1.0000004E-24
 -2.3500000E-03    1.0000010E-24
 -2.3149999E-03    1.0000003E-24
 -2.2799999E-03    9.9999874E-25
 -2.2450001E-03    9.9999884E-25
 -2.2100001E-03    1.0000007E-24
 -2.1750000E-03    1.0000004E-24
 -2.1400000E-03    9.9999913E-25
 -2.1050000E-03    1.0000001E-24
 -2.0699999E-03    1.0000017E-24
 -2.0349999E-03    1.0000007E-24
 -2.0000001E-03    9.9999933E-25
 -1.9650001E-03    9.9999972E-25
 -1.9300000E-03    1.0000001E-24
 -1.8950000E-03    9.9999943E-25
 -1.8600000E-03    9.9999992E-25
 -1.8250000E-03    1.0000008E-24
 -1.7900000E-03    1.0000006E-24
 -1.7550000E-03    1.0000006E-24
 -1.7199999E-03    1.0000008E-24
 -1.6850000E-03    9.9999972E-25
 -1.6500000E-03    9.9999854E-25
 -1.6150000E-03    9.9999963E-25
 -1.5800000E-03    1.0000010E-24
 -1.5450000E-03    1.0000004E-24
 -1.5100000E-03    9.9999943E-25
 -1.4750001E-03    9.9999982E-25
 -1.4400000E-03    1.0000005E-24
 -1.4050000E-03    1.0000003E-24
 -1.3700000E-03    9.9999933E-25
 -1.3350000E-03    9.9999943E-25
 -1.3000000E-03    1.0000006E-24
 -1.2650000E-03    1.0000011E-24
 -1.2300001E-03    9.9999923E-25
 -1.1950000E-03    9.9999844E-25
 -1.1600000E-03    1.0000006E-24
 -1.1250000E-03    1.0000014E-24
 -1.0900000E-03    9.9999933E-25
 -1.0550000E-03    1.0000000E-24
 -1.0200000E-03    1.0000025E-24
 -9.8500005E-04    1.0000010E-24
 -9.5000002E-04    9.9999824E-25
 -9.1499998E-04    9.9999884E-25
 -8.8000001E-04    1.0000005E-24
 -8.4499997E-04    1.0000003E-24
 -8.1000000E-04    9.9999992E-25
 -7.7500002E-04    1.0000001E-24
 -7.3999999E-04    1.0000003E-24
 -7.0500001E-04    1.0000002E-24
 -6.6999998E-04    1.0000004E-24
 -6.3500000E-04    9.9999982E-25
 -6.0000003E-04    9.9999953E-25
 -5.6499999E-04    1.0000004E-24
 -5.3000002E-04    1.0000009E-24
 -4.9499999E-04    9.9999982E-25
 -4.6000001E-04    9.9999913E-25
 -4.2500001E-04    1.0000005E-24
 -3.9000000E-04    1.0000012E-24
 -3.5500000E-04    9.9999972E-25
 -3.1999999E-04    9.9999923E-25
 -2.8499999E-04    1.0000000E-24
 -2.5000001E-04    1.0000000E-24
 -2.1499999E-04    9.9999982E-25
 -1.8000000E-04    1.0000005E-24
 -1.4500000E-04    1.0000008E-24
 -1.1000000E-04    1.0000005E-24
 -7.5000004E-05    1.0000005E-24
 -3.9999999E-05    1.0000008E-24
 -4.9999999E-06    1.0000003E-24
  2.9999999E-05    9.9999864E-25
  6.5000000E-05    9.9999893E-25
  9.9999997E-05    1.0000008E-24
  1.3499999E-04    1.0000003E-24
  1.7000000E-04    9.9999884E-25
  2.0500000E-04    9.9999963E-25
  2.3999999E-04    1.0000007E-24
  2.7500000E-04    9.9999943E-25
  3.1000000E-04    9.9999933E-25
  3.4500001E-04    1.0000015E-24
  3.8000001E-04    1.0000015E-24
  4.1499999E-04    9.9999972E-25
  4.4999999E-04    9.9999943E-25
  4.8500000E-04    1.0000003E-24
  5.2000000E-04    1.0000006E-24
  5.5499998E-04    9.9999972E-25
  5.9000001E-04    9.9999963E-25
  6.2499999E-04    1.0000007E-24
  6.6000002E-04    1.0000005E-24
  6.9500000E-04    9.9999884E-25
  7.3000003E-04    9.9999963E-25
  7.6500000E-04    1.0000005E-24
  7.9999998E-04    9.9999923E-25
  8.3500001E-04    9.9999874E-25
  8.6999999E-04    1.0000010E-24
  9.0500002E-04    1.0000014E-24
  9.4000000E-04    9.9999992E-25
  9.7499997E-04    9.9999972E-25
  1.0100000E-03    1.0000002E-24
  1.0450000E-03    9.9999933E-25
  1.0800000E-03    9.9999913E-25
  1.1150000E-03    1.0000004E-24
  1.1500000E-03    1.0000011E-24
  1.1849999E-03    1.0000004E-24
  1.2200000E-03    9.9999972E-25
  1.2550000E-03    9.9999933E-25
  1.2900000E-03    1.0000000E-24
  1.3250000E-03    1.0000007E-24
  1.3600000E-03    1.0000002E-24
  1.3950000E-03    1.0000000E-24
  1.4299999E-03    1.0000011E-24
  1.4650000E-03    1.0000002E-24
  1.5000000E-03    9.9999913E-25
  1.5350000E-03    1.0000002E-24
  1.5700000E-03    1.0000013E-24
  1.6050000E-03    9.9999933E-25
  1.6400000E-03    9.9999834E-25
  1.6749999E-03    1.0000002E-24
  1.7100000E-03    1.0000006E-24
  1.7450000E-03    9.9999963E-25
  1.7800000E-03    1.0000003E-24
  1.8150000E-03    1.0000016E-24
  1.8500000E-03    1.0000005E-24
  1.8850000E-03    9.9999893E-25
  1.9200000E-03    9.9999982E-25
  1.9550000E-03    1.0000013E-24
  1.9900000E-03    1.0000001E-24
  2.0250001E-03    9.9999864E-25
  2.0600001E-03    1.0000002E-24
  2.0949999E-03    1.0000011E-24
  2.1299999E-03    9.9999923E-25
  2.1650000E-03    9.9999933E-25
  2.2000000E-03    1.0000018E-24
  2.2350000E-03    1.0000008E-24
  2.2700001E-03    9.9999844E-25
  2.3050001E-03    9.9999933E-25
  2.3399999E-03    1.0000004E-24
  2.3749999E-03    9.9999963E-25
  2.4100000E-03    1.0000005E-24
  2.4450000E-03    1.0000016E-24
  2.4800000E-03    9.9999992E-25
  2.5150001E-03    9.9999844E-25
  2.5500001E-03    9.9999923E-25
  2.5849999E-03    1.0000006E-24
  2.6199999E-03    1.0000007E-24
  2.6550000E-03    1.0000007E-24
  2.6900000E-03    1.0000007E-24
  2.7250000E-03    1.0000006E-24
  2.7600001E-03    1.0000010E-24
  2.7950001E-03    1.0000009E-24
  2.8299999E-03    9.9999854E-25
  2.8649999E-03    9.9999805E-25
  2.9000000E-03    1.0000014E-24
  2.9350000E-03    1.0000023E-24
  2.9700000E-03    9.9999893E-25
  3.0050001E-03    9.9999913E-25
  3.0400001E-03    1.0000015E-24
  3.0749999E-03    1.0000002E-24
  3.1099999E-03    9.9999903E-25
  3.1450000E-03    1.0000005E-24
  3.1800000E-03    1.0000011E-24
  3.2150000E-03    9.9999963E-25
  3.2500001E-03    9.9999844E-25
  3.2850001E-03    9.9999874E-25
  3.3199999E-03    1.0000009E-24
  3.3549999E-03    1.0000016E-24
  3.3900000E-03    1.0000001E-24
  3.4250000E-03    1.0000003E-24
  3.4600000E-03    1.0000011E-24
  3.4950001E-03    9.9999854E-25
  3.5300001E-03    9.9999815E-25
  3.5649999E-03    1.0000016E-24
  3.5999999E-03    1.0000014E-24
  3.6350000E-03    9.9999913E-25
  3.6700000E-03    1.0000010E-24
  3.7050000E-03    1.0000017E-24
  3.7400001E-03    9.9999834E-25
  3.7750001E-03    9.9999795E-25
  3.8099999E-03    1.0000002E-24
  3.8449999E-03    1.0000008E-24
  3.8800000E-03    1.0000006E-24
  3.9149998E-03    1.0000008E-24
  3.9499998E-03    9.9999963E-25
  3.9849998E-03    9.9999844E-25
  4.0199999E-03    9.9999805E-25
  4.0549999E-03    9.9999943E-25
  4.0899999E-03    1.0000016E-24
  4.1250000E-03    1.0000011E-24
  4.1600000E-03    1.0000000E-24
  4.1950000E-03    1.0000016E-24
  4.2300001E-03    1.0000010E-24
  4.2650001E-03    9.9999775E-25
  4.3000001E-03    9.9999884E-25
  4.3350002E-03    1.0000029E-24
  4.3700002E-03    1.0000020E-24
  4.4049998E-03    9.9999844E-25
  4.4399998E-03    9.9999815E-25
  4.4749998E-03    9.9999933E-25
  4.5099999E-03    9.9999972E-25
  4.5449999E-03    1.0000007E-24
  4.5799999E-03    1.0000005E-24
  4.6150000E-03    1.0000000E-24
  4.6500000E-03    1.0000013E-24
  4.6850001E-03    1.0000024E-24
  4.7200001E-03    1.0000003E-24
  4.7550001E-03    9.9999815E-25
  4.7900002E-03    9.9999933E-25
  4.8250002E-03    1.0000008E-24
  4.8600002E-03    9.9999992E-25
  4.8949998E-03    9.9999933E-25
  4.9299998E-03    1.0000008E-24
  4.9649999E-03    1.0000018E-24
  4.9999999E-03    1.0000002E-24
  5.0349999E-03    9.9999844E-25
  5.0700000E-03    9.9999933E-25
  5.1050000E-03    1.0000006E-24
  5.1400000E-03    1.0000011E-24
  5.1750001E-03    1.0000009E-24
  5.2100001E-03    9.9999972E-25
  5.2450001E-03    9.9999884E-25
  5.2800002E-03    9.9999972E-25
  5.3150002E-03    1.0000006E-24
  5.3500002E-03    1.0000008E-24
  5.3849998E-03    1.0000003E-24
  5.4199998E-03    9.9999923E-25
  5.4549999E-03    1.0000000E-24
  5.4899999E-03    1.0000020E-24
  5.5249999E-03    9.9999963E-25
  5.5600000E-03    9.9999657E-25
  5.5950000E-03    9.9999972E-25
  5.6300000E-03    1.0000033E-24
  5.6650001E-03    9.9999992E-25
  5.7000001E-03    9.9999775E-25
  5.7350001E-03    1.0000016E-24
  5.7700002E-03    1.0000023E-24
  5.8050002E-03    9.9999765E-25
  5.8400002E-03    9.9999824E-25
  5.8749998E-03    1.0000023E-24
  5.9099998E-03    1.0000008E-24
  5.9449999E-03    9.9999765E-25
  5.9799999E-03    1.0000003E-24
  6.0149999E-03    1.0000027E-24
  6.0500000E-03    9.9999913E-25
  6.0850000E-03    9.9999755E-25
  6.1200000E-03    1.0000016E-24
  6.1550001E-03    1.0000024E-24
  6.1900001E-03    9.9999834E-25
  6.2250001E-03    9.9999903E-25
  6.2600002E-03    1.0000038E-24
  6.2950002E-03    1.0000028E-24
  6.3299998E-03    9.9999755E-25
  6.3649998E-03    9.9999805E-25
  6.3999998E-03    1.0000024E-24
  6.4349999E-03    1.0000004E-24
  6.4699999E-03    9.9999716E-25
  6.5049999E-03    9.9999824E-25
  6.5400000E-03    1.0000010E-24
  6.5750000E-03    1.0000059E-24
  6.6100000E-03    1.0000003E-24
  6.6450001E-03    9.9998858E-25
  6.6800001E-03    9.9999726E-25
  6.7150001E-03    1.0000212E-24
  6.7500002E-03    1.0000117E-24
  6.7850002E-03    9.9997458E-25
  6.8199998E-03    9.9998474E-25
  6.8549998E-03    1.0000301E-24
  6.8899998E-03    1.0000199E-24
  6.9249999E-03    9.9996856E-25
  6.9599999E-03    9.9994618E-25
  6.9949999E-03    1.0000071E-24
  7.0300000E-03    1.0000637E-24
  7.0650000E-03    9.9999775E-25
  7.1000000E-03    9.9984175E-25
  7.1350001E-03    9.9998898E-25
  7.1700001E-03    1.0002888E-24
  7.2050001E-03    1.0002054E-24
  7.2400002E-03    9.9963655E-25
  7.2750002E-03    9.9976750E-25
  7.3099998E-03    1.0005193E-24
  7.3449998E-03    1.0003916E-24
  7.3799998E-03    9.9939901E-25
  7.4149999E-03    9.9915683E-25
  7.4499999E-03    1.0008382E-24
  7.4850000E-03    1.0017426E-24
  7.5200000E-03    9.9894196E-25
  7.5550000E-03    9.9708932E-25
  7.5900001E-03    1.0006932E-24
  7.6250001E-03    1.0050386E-24
  7.6600001E-03    1.0009807E-24
  7.6950002E-03    9.9260751E-25
  7.7300002E-03    9.9723348E-25
  7.7650002E-03    1.0104154E-24
  7.7999998E-03    1.0047951E-24
  7.8349998E-03    9.8820014E-25
  7.8699999E-03    9.9211397E-25
  7.9049999E-03    1.0133653E-24
  7.9399999E-03    1.0175564E-24
  7.9750000E-03    9.8895912E-25
  8.0100000E-03    9.6485775E-25
  8.0450000E-03    1.0098596E-24
  8.0800001E-03    1.0507942E-24
  8.1150001E-03    1.0070771E-24
  8.1500001E-03    9.3194450E-25
  8.1850002E-03    9.5331740E-25
  8.2200002E-03    1.0809398E-24
  8.2550002E-03    1.0893735E-24
  8.2900003E-03    8.9330786E-25
  8.3250003E-03    8.2628570E-25
  8.3600003E-03    1.1465883E-24
  8.3950004E-03    1.3210950E-24
  8.4300004E-03    9.4883154E-25
  8.4650004E-03    4.9105610E-25
  8.5000005E-03    1.0246326E-24
  8.5349996E-03    1.7622147E-24
  8.5699996E-03    1.2995686E-24
  8.6049996E-03    4.5042056E-26
  8.6399997E-03    4.1519007E-25
  8.6749997E-03    2.1428426E-24
  8.7099997E-03    2.1270913E-24
  8.7449998E-03   -2.9135165E-25
  8.7799998E-03   -8.5051571E-25
  8.8149998E-03    1.7884183E-24
  8.8499999E-03    3.3188873E-24
  8.8849999E-03    5.4745606E-25
  8.9199999E-03   -3.0249495E-24
  8.9550000E-03   -4.1722422E-26
  8.9900000E-03    5.6757323E-24
  9.0250000E-03    4.6565931E-24
  9.0600001E-03   -4.5519522E-24
  9.0950001E-03   -5.9564611E-24
  9.1300001E-03    7.6238460E-24
  9.1650002E-03    1.2181267E-23
  9.2000002E-03   -3.7201150E-24
  9.2350002E-03   -1.6034025E-23
  9.2700003E-03    1.8358611E-26
  9.3050003E-03    2.2667282E-23
  9.3400003E-03    1.1385934E-23
  9.3750004E-03   -2.5395408E-23
  9.4100004E-03   -2.4492167E-23
  9.4450004E-03    2.5476293E-23
  9.4799995E-03    4.3169069E-23
  9.5149996E-03   -1.4451006E-23
  9.5499996E-03   -6.3702986E-23
  9.5849996E-03   -9.5704240E-25
  9.6199997E-03    1.0221458E-22
  9.6549997E-03    3.3022778E-23
  9.6899997E-03   -1.3153087E-22
  9.7249998E-03   -8.0658888E-23
  9.7599998E-03    1.3897674E-22
  9.7949998E-03    1.6210601E-22
  9.8299999E-03   -1.2833312E-22
  9.8649999E-03   -2.5805753E-22
  9.8999999E-03    2.0330277E-23
  9.9350000E-03    3.1281389E-22
  9.9700000E-03    1.1936251E-22
  1.0005000E-02   -4.1039422E-22
  1.0040000E-02   -3.2958530E-22
  1.0075000E-02    3.7063737E-22
  1.0110000E-02    6.9536501E-22
  1.0145000E-02   -1.7403873E-22
  1.0180000E-02   -1.0238489E-21
  1.0215000E-02   -1.5954391E-22
  1.0250000E-02    1.3317477E-21
  1.0285000E-02    6.4834900E-22
  1.0320000E-02   -1.7063147E-21
  1.0355000E-02   -1.6938006E-21
  1.0390000E-02    1.4268664E-21
  1.0425000E-02    3.0248034E-21
  1.0460000E-02   -5.7083020E-22
  1.0495000E-02   -4.3450376E-21
  1.0530000E-02   -9.9370079E-22
  1.0565000E-02    5.6589853E-21
  1.0600000E-02    3.6493383E-21
  1.0635000E-02   -6.3145781E-21
  1.0670000E-02   -6.7757042E-21
  1.0705000E-02    5.5059197E-21
  1.0740000E-02    1.2487032E-20
  1.0775000E-02   -1.5162596E-21
  1.0810000E-02   -1.6955332E-20
  1.0845000E-02   -5.8996613E-21
  1.0880000E-02    2.0576665E-20
  1.0915000E-02    1.7237956E-20
  1.0950000E-02   -2.2931052E-20
  1.0985000E-02   -3.2463475E-20
  1.1020000E-02    2.0255408E-20
  1.1055000E-02    5.0556394E-20
  1.1090000E-02   -6.8752151E-21
  1.1125000E-02   -7.0781780E-20
  1.1160000E-02   -2.0555808E-20
  1.1195000E-02    8.2266602E-20
  1.1230000E-02    5.9792182E-20
  1.1265000E-02   -8.5156144E-20
  1.1300000E-02   -1.1478063E-19
  1.1335000E-02    6.9910029E-20
  1.1370000E-02    1.8412884E-19
  1.1405000E-02   -2.2404061E-20
  1.1440000E-02   -2.5090714E-19
  1.1475000E-02   -7.1028590E-20
  1.1510000E-02    2.9659269E-19
  1.1545000E-02    2.1846977E-19
  1.1580000E-02   -2.8151854E-19
  1.1615000E-02   -3.8995135E-19
  1.1650000E-02    2.2028727E-19
  1.1685000E-02    5.9631331E-19
  1.1720000E-02   -7.4199697E-20
  1.1755000E-02   -8.1066740E-19
  1.1790000E-02   -2.1698659E-19
  1.1825000E-02    9.8020034E-19
  1.1860000E-02    6.4632419E-19
  1.1895000E-02   -1.0568905E-18
  1.1930000E-02   -1.2469032E-18
  1.1965000E-02    8.9148160E-19
  1.2000000E-02    1.9408761E-18
  1.2035000E-02   -3.9719145E-19
  1.2070000E-02   -2.5969240E-18
  1.2105000E-02   -5.0471066E-19
  1.2140000E-02    3.1539286E-18
  1.2175000E-02    1.8623237E-18
  1.2210000E-02   -3.2256197E-18
  1.2245000E-02   -3.5929070E-18
  1.2280000E-02    2.7822410E-18
  1.2315000E-02    5.4703704E-18
  1.2350000E-02   -1.4888060E-18
  1.2385000E-02   -7.3683239E-18
  1.2420000E-02   -1.0540325E-18
  1.2455000E-02    8.8052657E-18
  1.2490000E-02    4.8314875E-18
  1.2525000E-02   -9.2073557E-18
  1.2560000E-02   -9.8752577E-18
  1.2595000E-02    7.6473799E-18
  1.2630000E-02    1.5263987E-17
  1.2665000E-02   -3.9820785E-18
  1.2700000E-02   -2.0256173E-17
  1.2735000E-02   -2.4094841E-18
  1.2770000E-02    2.4053661E-17
  1.2805000E-02    1.1854590E-17
  1.2840000E-02   -2.5031576E-17
  1.2875000E-02   -2.4158174E-17
  1.2910000E-02    2.1410538E-17
  1.2945000E-02    3.7402460E-17
  1.2980000E-02   -1.1512456E-17
  1.3015000E-02   -4.9493780E-17
  1.3050000E-02   -5.5226982E-18
  1.3085000E-02    5.7464131E-17
  1.3120000E-02    2.9367459E-17
  1.3155000E-02   -5.7968281E-17
  1.3190000E-02   -5.7689528E-17
  1.3225000E-02    4.7394713E-17
  1.3260000E-02    8.7516926E-17
  1.3295000E-02   -2.2069893E-17
  1.3330000E-02   -1.1368037E-16
  1.3365000E-02   -1.8869638E-17
  1.3400000E-02    1.2702393E-16
  1.3435000E-02    7.2415176E-17
  1.3470000E-02   -1.2177966E-16
  1.3505000E-02   -1.3475456E-16
  1.3540000E-02    8.8018099E-17
  1.3575000E-02    1.9362772E-16
  1.3610000E-02   -2.5971342E-17
  1.3645000E-02   -2.3944655E-16
  1.3680000E-02   -6.6150924E-17
  1.3715000E-02    2.5173742E-16
  1.3750000E-02    1.8014095E-16
  1.3785000E-02   -2.1612583E-16
  1.3820000E-02   -2.9758179E-16
  1.3855000E-02    1.2351625E-16
  1.3890000E-02    3.9467606E-16
  1.3925000E-02    2.6439056E-17
  1.3960000E-02   -4.4213113E-16
  1.3995000E-02   -2.2506605E-16
  1.4030000E-02    4.0674006E-16
  1.4065000E-02    4.4320708E-16
  1.4100000E-02   -2.6378943E-16
  1.4135000E-02   -6.3153622E-16
  1.4170000E-02    8.5801964E-18
  1.4205000E-02    7.3757114E-16
  1.4240000E-02    3.4380723E-16
  1.4275000E-02   -6.8992565E-16
  1.4310000E-02   -7.4340053E-16
  1.4345000E-02    4.3497786E-16
  1.4380000E-02    1.0936133E-15
  1.4415000E-02    4.1130821E-17
  1.4450000E-02   -1.2845165E-15
  1.4485000E-02   -7.0949285E-16
  1.4520000E-02    1.1919191E-15
  1.4555000E-02    1.4821966E-15
  1.4590000E-02   -7.0248995E-16
  1.4625000E-02   -2.1891423E-15
  1.4660000E-02   -2.4529640E-16
  1.4695000E-02    2.5956963E-15
  1.4730000E-02    1.6172018E-15
  1.4765000E-02   -2.4343452E-15
  1.4800000E-02   -3.2391542E-15
  1.4835000E-02    1.4594421E-15
  1.4870000E-02    4.7822726E-15
  1.4905000E-02    4.8390452E-16
  1.4940000E-02   -5.7707275E-15
  1.4975000E-02   -3.3475970E-15
  1.5010000E-02    5.6637769E-15
  1.5045000E-02    6.8478595E-15
  1.5080000E-02   -3.9038770E-15
  1.5115000E-02   -1.0362852E-14
  1.5150000E-02    1.1630284E-16
  1.5185000E-02    1.2966689E-14
  1.5220000E-02    5.7246379E-15
  1.5255000E-02   -1.3524314E-14
  1.5290000E-02   -1.3133707E-14
  1.5325000E-02    1.0888311E-14
  1.5360000E-02    2.1006371E-14
  1.5395000E-02   -4.1842716E-15
  1.5430000E-02   -2.7625099E-14
  1.5465000E-02   -6.8796270E-15
  1.5500000E-02    3.0769404E-14
  1.5535000E-02    2.1627821E-14
  1.5570000E-02   -2.8109417E-14
  1.5605000E-02   -3.8206939E-14
  1.5640000E-02    1.7699634E-14
  1.5675001E-02    5.3533627E-14
  1.5710000E-02    1.3771416E-15
  1.5745001E-02   -6.3544263E-14
  1.5780000E-02   -2.8379903E-14
  1.5814999E-02    6.3791766E-14
  1.5850000E-02    6.0437515E-14
  1.5884999E-02   -5.0319788E-14
  1.5920000E-02   -9.2397762E-14
  1.5954999E-02    2.0835845E-14
  1.5990000E-02    1.1725445E-13
  1.6024999E-02    2.4210953E-14
  1.6060000E-02   -1.2707377E-13
  1.6094999E-02   -8.0764883E-14
  1.6130000E-02    1.1450200E-13
  1.6164999E-02    1.4088111E-13
  1.6200000E-02   -7.4610613E-14
  1.6235000E-02   -1.9324803E-13
  1.6270000E-02    6.8182798E-15
  1.6305000E-02    2.2474219E-13
  1.6340001E-02    8.3744718E-14
  1.6375000E-02   -2.2276366E-13
  1.6410001E-02   -1.8571760E-13
  1.6445000E-02    1.7810444E-13
  1.6480001E-02    2.8224591E-13
  1.6515000E-02   -8.7927231E-14
  1.6550001E-02   -3.5331121E-13
  1.6585000E-02   -4.2164131E-14
  1.6620001E-02    3.7913357E-13
  1.6655000E-02    1.9731356E-13
  1.6690001E-02   -3.4443227E-13
  1.6725000E-02   -3.5451882E-13
  1.6759999E-02    2.4250130E-13
  1.6795000E-02    4.8579554E-13
  1.6829999E-02   -7.8254996E-14
  1.6865000E-02   -5.6304944E-13
  1.6899999E-02   -1.3094980E-13
  1.6935000E-02    5.6353126E-13
  1.6969999E-02    3.5674041E-13
  1.7005000E-02   -4.7527433E-13
  1.7039999E-02   -5.6396738E-13
  1.7075000E-02    3.0061218E-13
  1.7109999E-02    7.1684911E-13
  1.7145000E-02   -5.7042892E-14
  1.7180000E-02   -7.8555527E-13
  1.7215000E-02   -2.2485628E-13
  1.7250000E-02    7.5229330E-13
  1.7285001E-02    5.0676450E-13
  1.7320000E-02   -6.1471368E-13
  1.7355001E-02   -7.4926052E-13
  1.7390000E-02    3.8619867E-13
  1.7425001E-02    9.1871281E-13
  1.7460000E-02   -9.3091028E-14
  1.7495001E-02   -9.9277487E-13
  1.7530000E-02   -2.3114719E-13
  1.7565001E-02    9.6251078E-13
  1.7600000E-02    5.5204674E-13
  1.7635001E-02   -8.3152062E-13
  1.7670000E-02   -8.3952653E-13
  1.7704999E-02    6.1217193E-13
  1.7740000E-02    1.0706052E-12
  1.7774999E-02   -3.2075991E-13
  1.7810000E-02   -1.2287874E-12
  1.7844999E-02   -2.5995070E-14
  1.7880000E-02    1.3013043E-12
  1.7914999E-02    4.1233144E-13
  1.7950000E-02   -1.2750202E-12
  1.7984999E-02   -8.2077162E-13
  1.8020000E-02    1.1348013E-12
  1.8054999E-02    1.2274561E-12
  1.8090000E-02   -8.6495568E-13
  1.8124999E-02   -1.5968187E-12
  1.8160000E-02    4.5579599E-13
  1.8195000E-02    1.8797850E-12
  1.8230001E-02    8.6821290E-14
  1.8265000E-02   -2.0173902E-12
  1.8300001E-02   -7.3177353E-13
  1.8335000E-02    1.9512063E-12
  1.8370001E-02    1.4168511E-12
  1.8405000E-02   -1.6396855E-12
  1.8440001E-02   -2.0517028E-12
  1.8475000E-02    1.0753042E-12
  1.8510001E-02    2.5305875E-12
  1.8545000E-02   -2.9742254E-13
  1.8580001E-02   -2.7544551E-12
  1.8615000E-02   -6.0557505E-13
  1.8650001E-02    2.6568019E-12
  1.8685000E-02    1.5082766E-12
  1.8719999E-02   -2.2257289E-12
  1.8755000E-02   -2.2736513E-12
  1.8789999E-02    1.5140927E-12
  1.8825000E-02    2.7867923E-12
  1.8859999E-02   -6.3120635E-13
  1.8895000E-02   -2.9866522E-12
  1.8929999E-02   -2.8417904E-13
  1.8965000E-02    2.8846775E-12
  1.8999999E-02    1.1038686E-12
  1.9035000E-02   -2.5615482E-12
  1.9069999E-02   -1.7516295E-12
  1.9105000E-02    2.1385519E-12
  1.9140000E-02    2.2305686E-12
  1.9175000E-02   -1.7300502E-12
  1.9210000E-02   -2.6240308E-12
  1.9245001E-02    1.3907194E-12
  1.9280000E-02    3.0642134E-12
  1.9315001E-02   -1.0760097E-12
  1.9350000E-02   -3.6720145E-12
  1.9385001E-02    6.3571858E-13
  1.9420000E-02    4.4859099E-12
  1.9455001E-02    1.4998826E-13
  1.9490000E-02   -5.4028266E-12
  1.9525001E-02   -1.4931383E-12
  1.9560000E-02    6.1585754E-12
  1.9595001E-02    3.4991283E-12
  1.9630000E-02   -6.3634831E-12
  1.9664999E-02   -6.0755385E-12
  1.9700000E-02    5.5955076E-12
  1.9734999E-02    8.8826784E-12
  1.9770000E-02   -3.5327292E-12
  1.9804999E-02   -1.1352376E-11
  1.9840000E-02    9.1368997E-14
  1.9874999E-02    1.2785726E-11
  1.9910000E-02    4.4756208E-12
  1.9944999E-02   -1.2514375E-11
  1.9980000E-02   -9.5579187E-12
  2.0014999E-02    1.0086602E-11
  2.0050000E-02    1.4264424E-11
  2.0085000E-02   -5.4269909E-12
  2.0120000E-02   -1.7587931E-11
  2.0155000E-02   -1.0793584E-12
  2.0190001E-02    1.8622402E-11
  2.0225000E-02    8.6091594E-12
  2.0260001E-02   -1.6778034E-11
  2.0295000E-02   -1.6032533E-11
  2.0330001E-02    1.1936182E-11
  2.0365000E-02    2.2124165E-11
  2.0400001E-02   -4.5007986E-12
  2.0435000E-02   -2.5797855E-11
  2.0470001E-02   -4.6615112E-12
  2.0505000E-02    2.6309772E-11
  2.0540001E-02    1.4376464E-11
  2.0575000E-02   -2.3381970E-11
  2.0609999E-02   -2.3367062E-11
  2.0645000E-02    1.7224522E-11
  2.0679999E-02    3.0452970E-11
  2.0715000E-02   -8.4669233E-12
  2.0749999E-02   -3.4696281E-11
  2.0785000E-02   -1.9590636E-12
  2.0819999E-02    3.5479033E-11
  2.0855000E-02    1.2941362E-11
  2.0889999E-02   -3.2527654E-11
  2.0925000E-02   -2.3288741E-11
  2.0959999E-02    2.5911146E-11
  2.0995000E-02    3.1808046E-11
  2.1029999E-02   -1.6033308E-11
  2.1065000E-02   -3.7359883E-11
  2.1100000E-02    3.6489709E-12
  2.1135001E-02    3.8931740E-11
  2.1170000E-02    1.0103762E-11
  2.1205001E-02   -3.5767254E-11
  2.1240000E-02   -2.3702658E-11
  2.1275001E-02    2.7554750E-11
  2.1310000E-02    3.5334482E-11
  2.1345001E-02   -1.4620789E-11
  2.1380000E-02   -4.3099389E-11
  2.1415001E-02   -1.9257998E-12
  2.1450000E-02    4.5328023E-11
  2.1485001E-02    2.0167848E-11
  2.1520000E-02   -4.0981767E-11
  2.1555001E-02   -3.7552995E-11
  2.1590000E-02    3.0041802E-11
  2.1624999E-02    5.1316711E-11
  2.1660000E-02   -1.3709722E-11
  2.1694999E-02   -5.9046427E-11
  2.1730000E-02   -5.6584598E-12
  2.1764999E-02    5.9263809E-11
  2.1800000E-02    2.4916912E-11
  2.1834999E-02   -5.1878848E-11
  2.1870000E-02   -4.0750930E-11
  2.1904999E-02    3.8389580E-11
  2.1940000E-02    5.0514769E-11
  2.1974999E-02   -2.1591257E-11
  2.2010000E-02   -5.2934161E-11
  2.2045000E-02    4.8900827E-12
  2.2080000E-02    4.8465277E-11
  2.2115000E-02    8.6240520E-12
  2.2150001E-02   -3.9123097E-11
  2.2185000E-02   -1.6977834E-11
  2.2220001E-02    2.7965479E-11
  2.2255000E-02    2.0007853E-11
  2.2290001E-02   -1.8007110E-11
  2.2325000E-02   -1.9352473E-11
  2.2360001E-02    1.1133398E-11
  2.2395000E-02    1.7829882E-11
  2.2430001E-02   -7.2643315E-12
  2.2465000E-02   -1.8108907E-11
  2.2500001E-02    4.5270294E-12
  2.2535000E-02    2.1730772E-11
  2.2569999E-02    3.1843199E-13
  2.2605000E-02   -2.7974368E-11
  2.2639999E-02   -1.0417158E-11
  2.2675000E-02    3.3797059E-11
  2.2709999E-02    2.7454528E-11
  2.2745000E-02   -3.4218763E-11
  2.2779999E-02   -4.9790363E-11
  2.2815000E-02    2.4777853E-11
  2.2849999E-02    7.2985992E-11
  2.2885000E-02   -2.8561155E-12
  2.2919999E-02   -9.0151185E-11
  2.2955000E-02   -3.0351634E-11
  2.2990000E-02    9.4421714E-11
  2.3025000E-02    7.0032986E-11
  2.3060000E-02   -8.0206300E-11
  2.3095001E-02   -1.0686819E-10
  2.3130000E-02    4.7379628E-11
  2.3165001E-02    1.3139105E-10
  2.3200000E-02   -3.4447491E-13
  2.3235001E-02   -1.3521977E-10
  2.3270000E-02   -5.1040051E-11
  2.3305001E-02    1.1561798E-10
  2.3340000E-02    9.6183221E-11
  2.3375001E-02   -7.3765986E-11
  2.3410000E-02   -1.2305956E-10
  2.3445001E-02    1.8927937E-11
  2.3480000E-02    1.2565028E-10
  2.3514999E-02    3.7765999E-11
  2.3550000E-02   -1.0221341E-10
  2.3584999E-02   -8.2561756E-11
  2.3620000E-02    6.0257833E-11
  2.3654999E-02    1.0826295E-10
  2.3690000E-02   -7.2943587E-12
  2.3724999E-02   -1.0797356E-10
  2.3760000E-02   -4.2050328E-11
  2.3794999E-02    8.6166518E-11
  2.3830000E-02    7.9067475E-11
  2.3864999E-02   -4.8381060E-11
  2.3900000E-02   -9.3937289E-11
  2.3934999E-02    9.2845488E-12
  2.3970000E-02    9.1187696E-11
  2.4005000E-02    2.6070483E-11
  2.4040001E-02   -7.0643442E-11
  2.4075000E-02   -4.5543427E-11
  2.4110001E-02    4.4993960E-11
  2.4145000E-02    5.1597965E-11
  2.4180001E-02   -1.8400148E-11
  2.4215000E-02   -3.9968386E-11
  2.4250001E-02    6.1821364E-12
  2.4285000E-02    2.5409804E-11
  2.4320001E-02   -3.0227199E-12
  2.4355000E-02   -8.0635143E-12
  2.4390001E-02    1.6371564E-11
  2.4425000E-02    5.4653335E-12
  2.4460001E-02   -3.1315520E-11
  2.4495000E-02   -1.1638664E-11
  2.4529999E-02    5.0646480E-11
  2.4565000E-02    3.9438407E-11
  2.4599999E-02   -4.9719524E-11
  2.4635000E-02   -6.5923392E-11
  2.4669999E-02    3.9823256E-11
  2.4705000E-02    9.6494431E-11
  2.4739999E-02   -6.1639738E-12
  2.4775000E-02   -1.0633348E-10
  2.4809999E-02   -3.1419960E-11
  2.4845000E-02    1.0281458E-10
  2.4879999E-02    7.9713833E-11
  2.4915000E-02   -6.5669040E-11
  2.4950000E-02   -1.0271441E-10
  2.4985000E-02    2.8307443E-11
  2.5020000E-02    1.1921143E-10
  2.5055001E-02    2.8417154E-11
  2.5090000E-02   -9.5018271E-11
  2.5125001E-02   -6.5828870E-11
  2.5160000E-02    5.7885887E-11
  2.5195001E-02    9.6713082E-11
  2.5230000E-02    5.5005575E-12
  2.5265001E-02   -8.1802357E-11
  2.5300000E-02   -4.4243453E-11
  2.5335001E-02    6.4929756E-11
  2.5370000E-02    8.6693250E-11
  2.5405001E-02   -1.5597003E-11
  2.5440000E-02   -8.5827796E-11
  2.5474999E-02   -1.5689307E-11
  2.5510000E-02    8.4423524E-11
  2.5544999E-02    5.6125909E-11
  2.5580000E-02   -4.7812396E-11
  2.5614999E-02   -5.4245233E-11
  2.5650000E-02    2.2977280E-11
  2.5684999E-02    3.6606926E-11
  2.5720000E-02   -8.3747297E-12
  2.5754999E-02   -5.8970103E-12
  2.5790000E-02    2.8666146E-11
  2.5824999E-02    9.0797161E-12
  2.5860000E-02   -2.5158917E-11
  2.5895000E-02    1.3448445E-11
  2.5930000E-02    6.7689486E-11
  2.5965000E-02    2.1368660E-11
  2.6000001E-02   -8.9593569E-11
  2.6035000E-02   -6.9318419E-11
  2.6070001E-02    1.0199780E-10
  2.6105000E-02    1.4257348E-10
  2.6140001E-02   -6.5113741E-11
  2.6175000E-02   -1.7435231E-10
  2.6210001E-02    3.1483469E-11
  2.6245000E-02    2.0142711E-10
  2.6280001E-02    3.8065062E-11
  2.6315000E-02   -1.8199076E-10
  2.6350001E-02   -9.8242331E-11
  2.6385000E-02    1.1940388E-10
  2.6419999E-02    1.1652460E-10
  2.6455000E-02   -5.9930949E-11
  2.6489999E-02   -1.1655504E-10
  2.6525000E-02    2.1794771E-11
  2.6559999E-02    1.2690994E-10
  2.6595000E-02    4.0393511E-11
  2.6629999E-02   -8.6401684E-11
  2.6665000E-02   -8.3828014E-11
  2.6699999E-02    1.5292332E-11
  2.6735000E-02    8.2360389E-11
  2.6769999E-02    4.4481096E-11
  2.6805000E-02   -7.1609843E-11
  2.6839999E-02   -8.9104071E-11
  2.6875000E-02    5.4992792E-11
  2.6910000E-02    1.2718263E-10
  2.6945001E-02   -3.3823864E-11
  2.6980000E-02   -1.6185411E-10