 -4.8000002E-03    1.0000000E-24
 -4.7650002E-03    1.0000000E-24
 -4.7300002E-03    1.0000001E-24
 -4.6950001E-03    1.0000002E-24
 -4.6600001E-03    1.0000001E-24
 -4.6250001E-03    1.0000000E-24
 -4.5900000E-03    1.0000000E-24
 -4.5550000E-03    1.0000002E-24
 -4.5200000E-03    1.0000000E-24
 -4.4849999E-03    1.0000000E-24
 -4.4499999E-03    1.0000002E-24
 -4.4149999E-03    1.0000003E-24
 -4.3799998E-03    1.0000002E-24
 -4.3449998E-03    1.0000000E-24
 -4.3100002E-03    9.9999992E-25
 -4.2750002E-03    1.0000001E-24
 -4.2400002E-03    1.0000001E-24
 -4.2050001E-03    9.9999992E-25
 -4.1700001E-03    9.9999982E-25
 -4.1350001E-03    1.0000001E-24
 -4.1000000E-03    1.0000004E-24
 -4.0650000E-03    1.0000001E-24
 -4.0300000E-03    9.9999943E-25
 -3.9949999E-03    9.9999972E-25
 -3.9599999E-03    1.0000003E-24
 -3.9249999E-03    1.0000005E-24
 -3.8900001E-03    1.0000001E-24
 -3.8550000E-03    9.9999992E-25
 -3.8200000E-03    1.0000000E-24
 -3.7849999E-03    1.0000002E-24
 -3.7499999E-03    1.0000003E-24
 -3.7150001E-03    1.0000001E-24
 -3.6800001E-03    1.0000001E-24
 -3.6450000E-03    1.0000000E-24
 -3.6100000E-03    9.9999992E-25
 -3.5750000E-03    9.9999982E-25
 -3.5399999E-03    1.0000000E-24
 -3.5049999E-03    1.0000002E-24
 -3.4700001E-03    1.0000001E-24
 -3.4350001E-03    1.0000000E-24
 -3.4000000E-03    1.0000001E-24
 -3.3650000E-03    1.0000002E-24
 -3.3300000E-03    1.0000000E-24
 -3.2949999E-03    9.9999982E-25
 -3.2599999E-03    9.9999972E-25
 -3.2250001E-03    9.9999982E-25
 -3.1900001E-03    1.0000001E-24
 -3.1550000E-03    1.0000003E-24
 -3.1200000E-03    1.0000002E-24
 -3.0850000E-03    1.0000000E-24
 -3.0499999E-03    1.0000001E-24
 -3.0149999E-03    1.0000001E-24
 -2.9800001E-03    9.9999982E-25
 -2.9450001E-03    9.9999992E-25
 -2.9100000E-03    1.0000003E-24
 -2.8750000E-03    1.0000002E-24
 -2.8400000E-03    9.9999992E-25
 -2.8049999E-03    1.0000000E-24
 -2.7699999E-03    1.0000004E-24
 -2.7350001E-03    1.0000003E-24
 -2.7000001E-03    9.9999972E-25
 -2.6650000E-03    9.9999953E-25
 -2.6300000E-03    1.0000000E-24
 -2.5950000E-03    1.0000009E-24
 -2.5599999E-03    1.0000008E-24
 -2.5249999E-03    1.0000000E-24
 -2.4900001E-03    9.9999972E-25
 -2.4550001E-03    1.0000001E-24
 -2.4200000E-03    1.0000005E-24
 -2.3850000E-03    1.0000004E-24
 -2.3500000E-03    9.9999992E-25
 -2.3149999E-03    9.9999943E-25
 -2.2799999E-03    9.9999953E-25
 -2.2450001E-03    1.0000001E-24
 -2.2100001E-03    1.0000004E-24
 -2.1750000E-03    1.0000002E-24
 -2.1400000E-03    9.9999992E-25
 -2.1050000E-03    1.0000000E-24
 -2.0699999E-03    1.0000005E-24
 -2.0349999E-03    1.0000009E-24
 -2.0000001E-03    1.0000003E-24
 -1.9650001E-03    9.9999963E-25
 -1.9300000E-03    9.9999972E-25
 -1.8950000E-03    1.0000003E-24
 -1.8600000E-03    1.0000001E-24
 -1.8250000E-03    9.9999953E-25
 -1.7900000E-03    9.9999982E-25
 -1.7550000E-03    1.0000004E-24
 -1.7199999E-03    1.0000003E-24
 -1.6850000E-03    9.9999972E-25
 -1.6500000E-03    9.9999943E-25
 -1.6150000E-03    9.9999992E-25
 -1.5800000E-03    1.0000005E-24
 -1.5450000E-03    1.0000005E-24
 -1.5100000E-03    1.0000002E-24
 -1.4750001E-03    9.9999982E-25
 -1.4400000E-03    9.9999963E-25
 -1.4050000E-03    9.9999992E-25
 -1.3700000E-03    1.0000010E-24
 -1.3350000E-03    1.0000010E-24
 -1.3000000E-03    9.9999963E-25
 -1.2650000E-03    9.9999864E-25
 -1.2300001E-03    9.9999923E-25
 -1.1950000E-03    1.0000004E-24
 -1.1600000E-03    1.0000013E-24
 -1.1250000E-03    1.0000009E-24
 -1.0900000E-03    9.9999953E-25
 -1.0550000E-03    9.9999913E-25
 -1.0200000E-03    1.0000000E-24
 -9.8500005E-04    1.0000000E-24
 -9.5000002E-04    1.0000001E-24
 -9.1499998E-04    1.0000011E-24
 -8.8000001E-04    1.0000014E-24
 -8.4499997E-04    1.0000001E-24
 -8.1000000E-04    9.9999913E-25
 -7.7500002E-04    9.9999943E-25
 -7.3999999E-04    1.0000001E-24
 -7.0500001E-04    1.0000006E-24
 -6.6999998E-04    1.0000003E-24
 -6.3500000E-04    9.9999953E-25
 -6.0000003E-04    9.9999963E-25
 -5.6499999E-04    1.0000002E-24
 -5.3000002E-04    1.0000000E-24
 -4.9499999E-04    1.0000005E-24
 -4.6000001E-04    1.0000008E-24
 -4.2500001E-04    1.0000000E-24
 -3.9000000E-04    9.9999893E-25
 -3.5500000E-04    9.9999913E-25
 -3.1999999E-04    9.9999992E-25
 -2.8499999E-04    1.0000006E-24
 -2.5000001E-04    1.0000008E-24
 -2.1499999E-04    1.0000002E-24
 -1.8000000E-04    9.9999992E-25
 -1.4500000E-04    1.0000001E-24
 -1.1000000E-04    1.0000002E-24
 -7.5000004E-05    1.0000000E-24
 -3.9999999E-05    1.0000002E-24
 -4.9999999E-06    1.0000006E-24
  2.9999999E-05    1.0000007E-24
  6.5000000E-05    1.0000006E-24
  9.9999997E-05    1.0000002E-24
  1.3499999E-04    9.9999972E-25
  1.7000000E-04    9.9999972E-25
  2.0500000E-04    9.9999953E-25
  2.3999999E-04    9.9999943E-25
  2.7500000E-04    1.0000002E-24
  3.1000000E-04    1.0000002E-24
  3.4500001E-04    9.9999903E-25
  3.8000001E-04    9.9999893E-25
  4.1499999E-04    1.0000009E-24
  4.4999999E-04    1.0000023E-24
  4.8500000E-04    1.0000018E-24
  5.2000000E-04    9.9999963E-25
  5.5499998E-04    9.9999805E-25
  5.9000001E-04    9.9999874E-25
  6.2499999E-04    1.0000005E-24
  6.6000002E-04    1.0000016E-24
  6.9500000E-04    1.0000008E-24
  7.3000003E-04    9.9999943E-25
  7.6500000E-04    9.9999953E-25
  7.9999998E-04    1.0000002E-24
  8.3500001E-04    9.9999963E-25
  8.6999999E-04    9.9999913E-25
  9.0500002E-04    9.9999992E-25
  9.4000000E-04    1.0000007E-24
  9.7499997E-04    1.0000006E-24
  1.0100000E-03    1.0000000E-24
  1.0450000E-03    9.9999953E-25
  1.0800000E-03    9.9999992E-25
  1.1150000E-03    1.0000004E-24
  1.1500000E-03    9.9999972E-25
  1.1849999E-03    9.9999972E-25
  1.2200000E-03    1.0000005E-24
  1.2550000E-03    1.0000002E-24
  1.2900000E-03    9.9999992E-25
  1.3250000E-03    1.0000003E-24
  1.3600000E-03    9.9999972E-25
  1.3950000E-03    9.9999913E-25
  1.4299999E-03    1.0000002E-24
  1.4650000E-03    1.0000003E-24
  1.5000000E-03    9.9999982E-25
  1.5350000E-03    1.0000004E-24
  1.5700000E-03    1.0000006E-24
  1.6050000E-03    9.9999963E-25
  1.6400000E-03    9.9999982E-25
  1.6749999E-03    1.0000012E-24
  1.7100000E-03    1.0000008E-24
  1.7450000E-03    9.9999982E-25
  1.7800000E-03    9.9999982E-25
  1.8150000E-03    9.9999943E-25
  1.8500000E-03    9.9999963E-25
  1.8850000E-03    1.0000010E-24
  1.9200000E-03    1.0000006E-24
  1.9550000E-03    9.9999884E-25
  1.9900000E-03    9.9999943E-25
  2.0250001E-03    1.0000008E-24
  2.0600001E-03    1.0000008E-24
  2.0949999E-03    1.0000006E-24
  2.1299999E-03    1.0000001E-24
  2.1650000E-03    9.9999893E-25
  2.2000000E-03    9.9999943E-25
  2.2350000E-03    1.0000004E-24
  2.2700001E-03    1.0000010E-24
  2.3050001E-03    1.0000017E-24
  2.3399999E-03    1.0000008E-24
  2.3749999E-03    9.9999844E-25
  2.4100000E-03    9.9999874E-25
  2.4450000E-03    1.0000001E-24
  2.4800000E-03    1.0000002E-24
  2.5150001E-03    1.0000003E-24
  2.5500001E-03    1.0000004E-24
  2.5849999E-03    9.9999943E-25
  2.6199999E-03    9.9999953E-25
  2.6550000E-03    1.0000008E-24
  2.6900000E-03    1.0000007E-24
  2.7250000E-03    1.0000001E-24
  2.7600001E-03    9.9999933E-25
  2.7950001E-03    9.9999913E-25
  2.8299999E-03    1.0000008E-24
  2.8649999E-03    1.0000025E-24
  2.9000000E-03    1.0000016E-24
  2.9350000E-03    1.0000002E-24
  2.9700000E-03    9.9999893E-25
  3.0050001E-03    9.9999815E-25
  3.0400001E-03    9.9999913E-25
  3.0749999E-03    1.0000006E-24
  3.1099999E-03    1.0000003E-24
  3.1450000E-03    1.0000000E-24
  3.1800000E-03    9.9999992E-25
  3.2150000E-03    9.9999903E-25
  3.2500001E-03    9.9999943E-25
  3.2850001E-03    1.0000008E-24
  3.3199999E-03    1.0000006E-24
  3.3549999E-03    1.0000001E-24
  3.3900000E-03    1.0000005E-24
  3.4250000E-03    9.9999992E-25
  3.4600000E-03    9.9999982E-25
  3.4950001E-03    1.0000020E-24
  3.5300001E-03    1.0000021E-24
  3.5649999E-03    9.9999953E-25
  3.5999999E-03    9.9999834E-25
  3.6350000E-03    9.9999903E-25
  3.6700000E-03    9.9999913E-25
  3.7050000E-03    1.0000004E-24
  3.7400001E-03    1.0000025E-24
  3.7750001E-03    1.0000015E-24
  3.8099999E-03    9.9999864E-25
  3.8449999E-03    9.9999824E-25
  3.8800000E-03    9.9999913E-25
  3.9149998E-03    9.9999903E-25
  3.9499998E-03    9.9999992E-25
  3.9849998E-03    1.0000015E-24
  4.0199999E-03    1.0000010E-24
  4.0549999E-03    9.9999992E-25
  4.0899999E-03    9.9999992E-25
  4.1250000E-03    1.0000000E-24
  4.1600000E-03    1.0000003E-24
  4.1950000E-03    1.0000006E-24
  4.2300001E-03    9.9999963E-25
  4.2650001E-03    9.9999844E-25
  4.3000001E-03    9.9999933E-25
  4.3350002E-03    1.0000012E-24
  4.3700002E-03    1.0000014E-24
  4.4049998E-03    1.0000004E-24
  4.4399998E-03    9.9999972E-25
  4.4749998E-03    9.9999893E-25
  4.5099999E-03    9.9999903E-25
  4.5449999E-03    1.0000005E-24
  4.5799999E-03    1.0000010E-24
  4.6150000E-03    9.9999992E-25
  4.6500000E-03    9.9999982E-25
  4.6850001E-03    1.0000002E-24
  4.7200001E-03    9.9999963E-25
  4.7550001E-03    1.0000000E-24
  4.7900002E-03    1.0000015E-24
  4.8250002E-03    1.0000009E-24
  4.8600002E-03    9.9999864E-25
  4.8949998E-03    9.9999864E-25
  4.9299998E-03    1.0000003E-24
  4.9649999E-03    1.0000013E-24
  4.9999999E-03    1.0000006E-24
  5.0349999E-03    9.9999953E-25
  5.0700000E-03    9.9999982E-25
  5.1050000E-03    1.0000014E-24
  5.1400000E-03    1.0000008E-24
  5.1750001E-03    9.9999824E-25
  5.2100001E-03    9.9999864E-25
  5.2450001E-03    1.0000005E-24
  5.2800002E-03    1.0000001E-24
  5.3150002E-03    1.0000001E-24
  5.3500002E-03    1.0000013E-24
  5.3849998E-03    1.0000011E-24
  5.4199998E-03    1.0000016E-24
  5.4549999E-03    1.0000017E-24
  5.4899999E-03    9.9999706E-25
  5.5249999E-03    9.9999588E-25
  5.5600000E-03    1.0000045E-24
  5.5950000E-03    1.0000070E-24
  5.6300000E-03    9.9999440E-25
  5.6650001E-03    9.9998937E-25
  5.7000001E-03    1.0000085E-24
  5.7350001E-03    1.0000194E-24
  5.7700002E-03    9.9998819E-25
  5.8050002E-03    9.9996186E-25
  5.8400002E-03    1.0000103E-24
  5.8749998E-03    1.0000683E-24
  5.9099998E-03    9.9999795E-25
  5.9449999E-03    9.9988268E-25
  5.9799999E-03    9.9997704E-25
  6.0149999E-03    1.0001942E-24
  6.0500000E-03    1.0000826E-24
  6.0850000E-03    9.9969148E-25
  6.1200000E-03    9.9979304E-25
  6.1550001E-03    1.0004739E-24
  6.1900001E-03    1.0004563E-24
  6.2250001E-03    9.9930937E-25
  6.2600002E-03    9.9907429E-25
  6.2950002E-03    1.0009351E-24
  6.3299998E-03    1.0017651E-24
  6.3649998E-03    9.9886919E-25
  6.3999998E-03    9.9679951E-25
  6.4349999E-03    1.0010907E-24
  6.4699999E-03    1.0055488E-24
  6.5049999E-03    9.9957423E-25
  6.5400000E-03    9.9077981E-25
  6.5750000E-03    9.9839055E-25
  6.6100000E-03    1.0146688E-24
  6.6450001E-03    1.0063443E-24
  6.6800001E-03    9.7774931E-25
  6.7150001E-03    9.8399354E-25
  6.7500002E-03    1.0319156E-24
  6.7850002E-03    1.0341513E-24
  6.8199998E-03    9.5744038E-25
  6.8549998E-03    9.3388233E-25
  6.8899998E-03    1.0508905E-24
  6.9249999E-03    1.1194095E-24
  6.9599999E-03    9.5048243E-25
  6.9949999E-03    7.9629400E-25
  7.0300000E-03    1.0239587E-24
  7.0650000E-03    1.3299387E-24
  7.1000000E-03    1.0517327E-24
  7.1350001E-03    4.9251510E-25
  7.1700001E-03    7.7912542E-25
  7.2050001E-03    1.7379448E-24
  7.2400002E-03    1.5513074E-24
  7.2750002E-03   -3.2627252E-27
  7.3099998E-03   -1.4260813E-25
  7.3449998E-03    2.2451453E-24
  7.3799998E-03    3.1305178E-24
  7.4149999E-03   -3.3211266E-25
  7.4499999E-03   -2.6829980E-24
  7.4850000E-03    2.0105430E-24
  7.5200000E-03    6.9782478E-24
  7.5550000E-03    1.1625220E-24
  7.5900001E-03   -8.1492455E-24
  7.6250001E-03   -1.9027652E-24
  7.6600001E-03    1.4172380E-23
  7.6950002E-03    9.2873896E-24
  7.7300002E-03   -1.6670261E-23
  7.7650002E-03   -1.6822643E-23
  7.7999998E-03    2.2593410E-23
  7.8349998E-03    3.4438023E-23
  7.8699999E-03   -2.1746652E-23
  7.9049999E-03   -5.6317676E-23
  7.9399999E-03    1.8141245E-23
  7.9750000E-03    9.2429955E-23
  8.0100000E-03    2.8059889E-24
  8.0450000E-03   -1.3555748E-22
  8.0800001E-03   -4.3124176E-23
  8.1150001E-03    1.9157438E-22
  8.1500001E-03    1.2495013E-22
  8.1850002E-03   -2.4468537E-22
  8.2200002E-03   -2.5854529E-22
  8.2550002E-03    2.8537582E-22
  8.2900003E-03    4.7291436E-22
  8.3250003E-03   -2.7298033E-22
  8.3600003E-03   -7.7989778E-22
  8.3950004E-03    1.6114745E-22
  8.4300004E-03    1.1982080E-21
  8.4650004E-03    1.4083804E-22
  8.5000005E-03   -1.7075530E-21
  8.5349996E-03   -7.4081092E-22
  8.5699996E-03    2.2589432E-21
  8.6049996E-03    1.7948931E-21
  8.6399997E-03   -2.7118000E-21
  8.6749997E-03   -3.4633115E-21
  8.7099997E-03    2.8260412E-21
  8.7449998E-03    5.9107309E-21
  8.7799998E-03   -2.1844075E-21
  8.8149998E-03   -9.2127499E-21
  8.8499999E-03    1.8154052E-22
  8.8849999E-03    1.3285061E-20
  8.9199999E-03    4.0318548E-21
  8.9550000E-03   -1.7697214E-20
  8.9900000E-03   -1.1494935E-20
  9.0250000E-03    2.1494868E-20
  9.0600001E-03    2.3361477E-20
  9.0950001E-03   -2.2911675E-20
  9.1300001E-03   -4.0623990E-20
  9.1650002E-03    1.9130965E-20
  9.2000002E-03    6.3705373E-20
  9.2350002E-03   -6.0370400E-21
  9.2700003E-03   -9.1732947E-20
  9.3050003E-03   -2.1800132E-20
  9.3400003E-03    1.2158720E-19
  9.3750004E-03    7.0860337E-20
  9.4100004E-03   -1.4661554E-19
  9.4450004E-03   -1.4776718E-19
  9.4799995E-03    1.5525326E-19
  9.5149996E-03    2.5759045E-19
  9.5499996E-03   -1.2968859E-19
  9.5849996E-03   -4.0094980E-19
  9.6199997E-03    4.5170101E-20
  9.6549997E-03    5.6984612E-19
  9.6899997E-03    1.2944993E-19
  9.7249998E-03   -7.4209940E-19
  9.7599998E-03   -4.2882757E-19
  9.7949998E-03    8.7491090E-19
  9.8299999E-03    8.8484337E-19
  9.8649999E-03   -8.9840779E-19
  9.8999999E-03   -1.5155799E-18
  9.9350000E-03    7.1111265E-19
  9.9700000E-03    2.3087612E-18
  1.0005000E-02   -1.8001229E-19
  1.0040000E-02   -3.1993712E-18
  1.0075000E-02   -8.5081022E-19
  1.0110000E-02    4.0428883E-18
  1.0145000E-02    2.5384831E-18
  1.0180000E-02   -4.5875751E-18
  1.0215000E-02   -5.0016989E-18
  1.0250000E-02    4.4525921E-18
  1.0285000E-02    8.2595101E-18
  1.0320000E-02   -3.1221312E-18
  1.0355000E-02   -1.2147539E-17
  1.0390000E-02   -3.0250748E-20
  1.0425000E-02    1.6216214E-17
  1.0460000E-02    5.6704480E-18
  1.0495000E-02   -1.9623360E-17
  1.0530000E-02   -1.4368410E-17
  1.0565000E-02    2.1044682E-17
  1.0600000E-02    2.6385424E-17
  1.0635000E-02   -1.8637964E-17
  1.0670000E-02   -4.1380901E-17
  1.0705000E-02    1.0109405E-17
  1.0740000E-02    5.8054156E-17
  1.0775000E-02    7.0611529E-18
  1.0810000E-02   -7.3763930E-17
  1.0845000E-02   -3.5179035E-17
  1.0880000E-02    8.4204425E-17
  1.0915000E-02    7.5635628E-17
  1.0950000E-02   -8.3256516E-17
  1.0985000E-02   -1.2794453E-16
  1.1020000E-02    6.3170308E-17
  1.1055000E-02    1.8856753E-16
  1.1090000E-02   -1.5258657E-17
  1.1125000E-02   -2.4967260E-16
  1.1160000E-02   -6.8725752E-17
  1.1195000E-02    2.9807698E-16
  1.1230000E-02    1.9441121E-16
  1.1265000E-02   -3.1474672E-16
  1.1300000E-02   -3.6182413E-16
  1.1335000E-02    2.7532610E-16
  1.1370000E-02    5.6179270E-16
  1.1405000E-02   -1.5222378E-16
  1.1440000E-02   -7.7219616E-16
  1.1475000E-02   -8.1265327E-17
  1.1510000E-02    9.5482964E-16
  1.1545000E-02    4.4450934E-16
  1.1580000E-02   -1.0539814E-15
  1.1615000E-02   -9.4083899E-16
  1.1650000E-02    9.9806983E-16
  1.1685000E-02    1.5472451E-15
  1.1720000E-02   -7.0576458E-16
  1.1755000E-02   -2.2038675E-15
  1.1790000E-02    9.7806200E-17
  1.1825000E-02    2.8055199E-15
  1.1860000E-02    8.8487880E-16
  1.1895000E-02   -3.1982785E-15
  1.1930000E-02   -2.2572672E-15
  1.1965000E-02    3.1847056E-15
  1.2000000E-02    3.9626149E-15
  1.2035000E-02   -2.5412678E-15
  1.2070000E-02   -5.8451410E-15
  1.2105000E-02    1.0507036E-15
  1.2140000E-02    7.6291538E-15
  1.2175000E-02    1.4497886E-15
  1.2210000E-02   -8.9124578E-15
  1.2245000E-02   -5.0067084E-15
  1.2280000E-02    9.1828078E-15
  1.2315000E-02    9.4809592E-15
  1.2350000E-02   -7.8655818E-15
  1.2385000E-02   -1.4482087E-14
  1.2420000E-02    4.4080988E-15
  1.2455000E-02    1.9321669E-14
  1.2490000E-02    1.5992602E-15
  1.2525000E-02   -2.3004776E-14
  1.2560000E-02   -1.0272597E-14
  1.2595000E-02    2.4279498E-14
  1.2630000E-02    2.1272191E-14
  1.2665000E-02   -2.1761273E-14
  1.2700000E-02   -3.3656014E-14
  1.2735000E-02    1.4141085E-14
  1.2770000E-02    4.5786298E-14
  1.2805000E-02   -4.7284402E-16
  1.2840000E-02   -5.5331736E-14
  1.2875000E-02   -1.9483067E-14
  1.2910000E-02    5.9406913E-14
  1.2945000E-02    4.4904784E-14
  1.2980000E-02   -5.4879925E-14
  1.3015000E-02   -7.3608017E-14
  1.3050000E-02    3.8858351E-14
  1.3085000E-02    1.0188190E-13
  1.3120000E-02   -9.3317264E-15
  1.3155000E-02   -1.2454996E-13
  1.3190000E-02   -3.4092344E-14
  1.3225000E-02    1.3533559E-13
  1.3260000E-02    8.9464142E-14
  1.3295000E-02   -1.2758077E-13
  1.3330000E-02   -1.5192494E-13
  1.3365000E-02    9.5317878E-14
  1.3400000E-02    2.1346798E-13
  1.3435000E-02   -3.4622282E-14
  1.3470000E-02   -2.6319731E-13
  1.3505000E-02   -5.4907745E-14
  1.3540000E-02    2.8821964E-13
  1.3575000E-02    1.6877833E-13
  1.3610000E-02   -2.7523134E-13
  1.3645000E-02   -2.9663452E-13
  1.3680000E-02    2.1274912E-13
  1.3715000E-02    4.2202702E-13
  1.3750000E-02   -9.3792033E-14
  1.3785000E-02   -5.2321293E-13
  1.3820000E-02   -8.1334889E-14
  1.3855000E-02    5.7519305E-13
  1.3890000E-02    3.0263883E-13
  1.3925000E-02   -5.5301998E-13
  1.3960000E-02   -5.4899591E-13
  1.3995000E-02    4.3618256E-13
  1.4030000E-02    7.8824772E-13
  1.4065000E-02   -2.1359756E-13
  1.4100000E-02   -9.7931027E-13
  1.4135000E-02   -1.1151949E-13
  1.4170000E-02    1.0765399E-12
  1.4205000E-02    5.1784569E-13
  1.4240000E-02   -1.0362423E-12
  1.4275000E-02   -9.6422707E-13
  1.4310000E-02    8.2477124E-13
  1.4345000E-02    1.3909791E-12
  1.4380000E-02   -4.2719580E-13
  1.4415000E-02   -1.7248610E-12
  1.4450000E-02   -1.4489828E-13
  1.4485000E-02    1.8878451E-12
  1.4520000E-02    8.4815065E-13
  1.4555000E-02   -1.8091293E-12
  1.4590000E-02   -1.6063638E-12
  1.4625000E-02    1.4390798E-12
  1.4660000E-02    2.3149861E-12
  1.4695000E-02   -7.6303178E-13
  1.4730000E-02   -2.8517327E-12
  1.4765000E-02   -1.8760739E-13
  1.4800000E-02    3.0929777E-12
  1.4835000E-02    1.3296732E-12
  1.4870000E-02   -2.9343004E-12
  1.4905000E-02   -2.5303312E-12
  1.4940000E-02    2.3124475E-12
  1.4975000E-02    3.6184074E-12
  1.5010000E-02   -1.2249454E-12
  1.5045000E-02   -4.4049486E-12
  1.5080000E-02   -2.5673997E-13
  1.5115000E-02    4.7112561E-12
  1.5150000E-02    1.9843075E-12
  1.5185000E-02   -4.4008434E-12
  1.5220000E-02   -3.7426655E-12
  1.5255000E-02    3.4101587E-12
  1.5290000E-02    5.2736157E-12
  1.5325000E-02   -1.7722547E-12
  1.5360000E-02   -6.3114188E-12
  1.5395000E-02   -3.7237607E-13
  1.5430000E-02    6.6258075E-12
  1.5465000E-02    2.7819869E-12
  1.5500000E-02   -6.0657963E-12
  1.5535000E-02   -5.1385510E-12
  1.5570000E-02    4.5962765E-12
  1.5605000E-02    7.0898604E-12
  1.5640000E-02   -2.3195387E-12
  1.5675001E-02   -8.3034820E-12
  1.5710000E-02   -5.2451197E-13
  1.5745001E-02    8.5242395E-12
  1.5780000E-02    3.5822645E-12
  1.5814999E-02   -7.6249744E-12
  1.5850000E-02   -6.4331873E-12
  1.5884999E-02    5.6402851E-12
  1.5920000E-02    8.6532803E-12
  1.5954999E-02   -2.7750274E-12
  1.5990000E-02   -9.8852055E-12
  1.6024999E-02   -6.1664226E-13
  1.6060000E-02    9.9024816E-12
  1.6094999E-02    4.0805098E-12
  1.6130000E-02   -8.6550697E-12
  1.6164999E-02   -7.1328967E-12
  1.6200000E-02    6.2862137E-12
  1.6235000E-02    9.3407686E-12
  1.6270000E-02   -3.1151399E-12
  1.6305000E-02   -1.0396530E-11
  1.6340001E-02   -4.1311724E-13
  1.6375000E-02    1.0172841E-11
  1.6410001E-02    3.8030052E-12
  1.6445000E-02   -8.7454462E-12
  1.6480001E-02   -6.5952378E-12
  1.6515000E-02    6.3779680E-12
  1.6550001E-02    8.4481519E-12
  1.6585000E-02   -3.4700318E-12
  1.6620001E-02   -9.1967796E-12
  1.6655000E-02    4.7796505E-13
  1.6690001E-02    8.8763242E-12
  1.6725000E-02    2.1759567E-12
  1.6759999E-02   -7.7039885E-12
  1.6795000E-02   -4.1869442E-12
  1.6829999E-02    6.0212573E-12
  1.6865000E-02    5.4245345E-12
  1.6899999E-02   -4.2082115E-12
  1.6935000E-02   -5.9489384E-12
  1.6969999E-02    2.5882998E-12
  1.7005000E-02    5.9805238E-12
  1.7039999E-02   -1.3460828E-12
  1.7075000E-02   -5.8269249E-12
  1.7109999E-02    4.7951573E-13
  1.7145000E-02    5.7828451E-12
  1.7180000E-02    1.9769059E-13
  1.7215000E-02   -6.0262966E-12
  1.7250000E-02   -9.9901153E-13
  1.7285001E-02    6.5386130E-12
  1.7320000E-02    2.2615460E-12
  1.7355001E-02   -7.0739066E-12
  1.7390000E-02   -4.2177321E-12
  1.7425001E-02    7.1945579E-12
  1.7460000E-02    6.8742338E-12
  1.7495001E-02   -6.3751617E-12
  1.7530000E-02   -9.9343346E-12
  1.7565001E-02    4.1584340E-12
  1.7600000E-02    1.2794518E-11
  1.7635001E-02   -3.3029875E-13
  1.7670000E-02   -1.4632854E-11
  1.7704999E-02   -4.9313661E-12
  1.7740000E-02    1.4585399E-11
  1.7774999E-02    1.0982475E-11
  1.7810000E-02   -1.1981832E-11
  1.7844999E-02   -1.6752023E-11
  1.7880000E-02    6.5878149E-12
  1.7914999E-02    2.0910437E-11
  1.7950000E-02    1.2119054E-12
  1.7984999E-02   -2.2149661E-11
  1.8020000E-02   -1.0352296E-11
  1.8054999E-02    1.9525043E-11
  1.8090000E-02    1.9193650E-11
  1.8124999E-02   -1.2780170E-11
  1.8160000E-02   -2.5802974E-11
  1.8195000E-02    2.5620914E-12
  1.8230001E-02    2.8372381E-11
  1.8265000E-02    9.5548933E-12
  1.8300001E-02   -2.5687641E-11
  1.8335000E-02   -2.1278698E-11
  1.8370001E-02    1.7532675E-11
  1.8405000E-02    3.0029090E-11
  1.8440001E-02   -4.9143844E-12
  1.8475000E-02   -3.3517550E-11
  1.8510001E-02   -9.9860259E-12
  1.8545000E-02    3.0350288E-11
  1.8580001E-02    2.4172770E-11
  1.8615000E-02   -2.0491562E-11
  1.8650001E-02   -3.4454491E-11
  1.8685000E-02    5.4430037E-12
  1.8719999E-02    3.8189823E-11
  1.8755000E-02    1.1938781E-11
  1.8789999E-02   -3.3985932E-11
  1.8825000E-02   -2.7983978E-11
  1.8859999E-02    2.2168892E-11
  1.8895000E-02    3.9023930E-11
  1.8929999E-02   -4.8649110E-12
  1.8965000E-02   -4.2290938E-11
  1.8999999E-02   -1.4378709E-11
  1.9035000E-02    3.6658687E-11
  1.9069999E-02    3.1361649E-11
  1.9105000E-02   -2.3018445E-11
  1.9140000E-02   -4.2209836E-11
  1.9175000E-02    4.1817097E-12
  1.9210000E-02    4.4345659E-11
  1.9245001E-02    1.5713063E-11
  1.9280000E-02   -3.7196704E-11
  1.9315001E-02   -3.2190278E-11
  1.9350000E-02    2.2403164E-11
  1.9385001E-02    4.1556064E-11
  1.9420000E-02   -3.4424976E-12
  1.9455001E-02   -4.1824946E-11
  1.9490000E-02   -1.5208118E-11
  1.9525001E-02    3.3239661E-11
  1.9560000E-02    2.9177882E-11
  1.9595001E-02   -1.8259286E-11
  1.9630000E-02   -3.5353370E-11
  1.9664999E-02    9.3161850E-13
  1.9700000E-02    3.2728754E-11
  1.9734999E-02    1.4224541E-11
  1.9770000E-02   -2.2630389E-11
  1.9804999E-02   -2.3430482E-11
  1.9840000E-02    8.3026572E-12
  1.9874999E-02    2.4599267E-11
  1.9910000E-02    5.9355537E-12
  1.9944999E-02   -1.7904794E-11
  1.9980000E-02   -1.5841552E-11
  2.0014999E-02    5.8038127E-12
  2.0050000E-02    1.8508533E-11
  2.0085000E-02    7.6906372E-12
  2.0120000E-02   -1.3216715E-11
  2.0155000E-02   -1.8239282E-11
  2.0190001E-02    1.5166287E-12
  2.0225000E-02    2.2320545E-11
  2.0260001E-02    1.3223367E-11
  2.0295000E-02   -1.8089001E-11
  2.0330001E-02   -2.6570607E-11
  2.0365000E-02    6.0158766E-12
  2.0400001E-02    3.4227451E-11
  2.0435000E-02    1.1076280E-11
  2.0470001E-02   -3.3404654E-11
  2.0505000E-02   -2.8925366E-11
  2.0540001E-02    2.3522573E-11
  2.0575000E-02    4.3056132E-11
  2.0609999E-02   -6.1181837E-12
  2.0645000E-02   -4.9645326E-11
  2.0679999E-02   -1.5387238E-11
  2.0715000E-02    4.6389788E-11
  2.0749999E-02    3.6218341E-11
  2.0785000E-02   -3.3464502E-11
  2.0819999E-02   -5.1674304E-11
  2.0855000E-02    1.3500905E-11
  2.0889999E-02    5.8610047E-11
  2.0925000E-02    9.5879528E-12
  2.0959999E-02   -5.5752500E-11
  2.0995000E-02   -3.1510610E-11
  2.1029999E-02    4.3582631E-11
  2.1065000E-02    4.7993661E-11
  2.1100000E-02   -2.4736871E-11
  2.1135001E-02   -5.6025698E-11
  2.1170000E-02    3.5451631E-12
  2.1205001E-02    5.5220276E-11
  2.1240000E-02    1.5974883E-11
  2.1275001E-02   -4.7187240E-11
  2.1310000E-02   -3.1237648E-11
  2.1345001E-02    3.4129817E-11
  2.1380000E-02    4.0597629E-11
  2.1415001E-02   -1.8781419E-11
  2.1450000E-02   -4.3502337E-11
  2.1485001E-02    4.3666269E-12
  2.1520000E-02    4.1510816E-11
  2.1555001E-02    7.3059883E-12
  2.1590000E-02   -3.7117236E-11
  2.1624999E-02   -1.6765644E-11
  2.1660000E-02    3.1188382E-11
  2.1694999E-02    2.4465593E-11
  2.1730000E-02   -2.3937342E-11
  2.1764999E-02   -3.0527463E-11
  2.1800000E-02    1.5336723E-11
  2.1834999E-02    3.4485269E-11
  2.1870000E-02   -6.4244274E-12
  2.1904999E-02   -3.8196217E-11
  2.1940000E-02   -6.2141624E-12
  2.1974999E-02    3.7002970E-11
  2.2010000E-02    1.8810354E-11
  2.2045000E-02   -3.2676244E-11
  2.2080000E-02   -3.3934074E-11
  2.2115000E-02    1.7706761E-11
  2.2150001E-02    3.9117730E-11
  2.2185000E-02   -5.5378588E-12
  2.2220001E-02   -4.7432575E-11
  2.2255000E-02   -2.1079940E-11
  2.2290001E-02    3.3028053E-11
  2.2325000E-02    2.9969523E-11
  2.2360001E-02   -2.9445141E-11
  2.2395000E-02   -5.8282067E-11
  2.2430001E-02   -1.4107279E-11
  2.2465000E-02    3.4958255E-11
  2.2500001E-02    1.0027268E-11
  2.2535000E-02   -5.8579377E-11
  2.2569999E-02   -7.2807732E-11
  2.2605000E-02   -1.4415230E-11
  2.2639999E-02    2.2435198E-11
  2.2675000E-02   -2.9616393E-11
  2.2709999E-02   -1.0621366E-10
  2.2745000E-02   -1.0500027E-10
  2.2779999E-02   -4.1393364E-11
  2.2815000E-02   -2.8188273E-11
  2.2849999E-02   -1.0663633E-10
  2.2885000E-02   -1.8500040E-10
  2.2919999E-02   -1.7675403E-10
  2.2955000E-02   -1.2874701E-10
  2.2990000E-02   -1.5079289E-10
  2.3025000E-02   -2.5652941E-10
  2.3060000E-02   -3.4727088E-10
  2.3095001E-02   -3.5501199E-10
  2.3130000E-02   -3.3880199E-10
  2.3165001E-02   -4.0326306E-10
  2.3200000E-02   -5.5398325E-10
  2.3235001E-02   -6.8877914E-10
  2.3270000E-02   -7.4165840E-10
  2.3305001E-02   -7.8365575E-10
  2.3340000E-02   -9.3024310E-10
  2.3375001E-02   -1.1747018E-09
  2.3410000E-02   -1.3927025E-09
  2.3445001E-02   -1.5283534E-09
  2.3480000E-02   -1.6897282E-09
  2.3514999E-02   -1.9972088E-09
  2.3550000E-02   -2.4051428E-09
  2.3584999E-02   -2.7743974E-09
  2.3620000E-02   -3.0919500E-09
  2.3654999E-02   -3.4996894E-09
  2.3690000E-02   -4.0871391E-09
  2.3724999E-02   -4.7685385E-09
  2.3760000E-02   -5.4298441E-09
  2.3794999E-02   -6.1141288E-09
  2.3830000E-02   -6.9654331E-09
  2.3864999E-02   -8.0276958E-09
  2.3900000E-02   -9.2051025E-09
  2.3934999E-02   -1.0431446E-08
  2.3970000E-02   -1.1786234E-08
  2.4005000E-02   -1.3392988E-08
  2.4040001E-02   -1.5265000E-08
  2.4075000E-02   -1.7326860E-08
  2.4110001E-02   -1.9565556E-08
  2.4145000E-02   -2.2080000E-08
  2.4180001E-02   -2.4966994E-08
  2.4215000E-02   -2.8227392E-08
  2.4250001E-02   -3.1827113E-08
  2.4285000E-02   -3.5804316E-08
  2.4320001E-02   -4.0261046E-08
  2.4355000E-02   -4.5271729E-08
  2.4390001E-02   -5.0856219E-08
  2.4425000E-02   -5.7041582E-08
  2.4460001E-02   -6.3903443E-08
  2.4495000E-02   -7.1535055E-08
  2.4529999E-02   -8.0010274E-08
  2.4565000E-02   -8.9395677E-08
  2.4599999E-02   -9.9779392E-08
  2.4635000E-02   -1.1126835E-07
  2.4669999E-02   -1.2396542E-07
  2.4705000E-02   -1.3796927E-07
  2.4739999E-02   -1.5340159E-07
  2.4775000E-02   -1.7041759E-07
  2.4809999E-02   -1.8917102E-07
  2.4845000E-02   -2.0978213E-07
  2.4879999E-02   -2.3237777E-07
  2.4915000E-02   -2.5716088E-07
  2.4950000E-02   -2.8438680E-07
  2.4985000E-02   -3.1425549E-07
  2.5020000E-02   -3.4689748E-07
  2.5055001E-02   -3.8250812E-07
  2.5090000E-02   -4.2142213E-07
  2.5125001E-02   -4.6398378E-07
  2.5160000E-02   -5.1041189E-07
  2.5195001E-02   -5.6089311E-07
  2.5230000E-02   -6.1576532E-07
  2.5265001E-02   -6.7549092E-07
  2.5300000E-02   -7.4046721E-07
  2.5335001E-02   -8.1097744E-07
  2.5370000E-02   -8.8734475E-07
  2.5405001E-02   -9.7004204E-07
  2.5440000E-02   -1.0596152E-06
  2.5474999E-02   -1.1565571E-06
  2.5510000E-02   -1.2612938E-06
  2.5544999E-02   -1.3742754E-06
  2.5580000E-02   -1.4960756E-06
  2.5614999E-02   -1.6273875E-06
  2.5650000E-02   -1.7688774E-06
  2.5684999E-02   -1.9210768E-06
  2.5720000E-02   -2.0845180E-06
  2.5754999E-02   -2.2599556E-06
  2.5790000E-02   -2.4483063E-06
  2.5824999E-02   -2.6503387E-06
  2.5860000E-02   -2.8666248E-06
  2.5895000E-02   -3.0978808E-06
  2.5930000E-02   -3.3451488E-06
  2.5965000E-02   -3.6094787E-06
  2.6000001E-02   -3.8916337E-06
  2.6035000E-02   -4.1923186E-06
  2.6070001E-02   -4.5125566E-06
  2.6105000E-02   -4.8535653E-06
  2.6140001E-02   -5.2163732E-06
  2.6175000E-02   -5.6018216E-06
  2.6210001E-02   -6.0109023E-06
  2.6245000E-02   -6.4448436E-06
  2.6280001E-02   -6.9048492E-06
  2.6315000E-02   -7.3919687E-06
  2.6350001E-02   -7.9072552E-06
  2.6385000E-02   -8.4518833E-06
  2.6419999E-02   -9.0270587E-06
  2.6455000E-02   -9.6339672E-06
  2.6489999E-02   -1.0273804E-05
  2.6525000E-02   -1.0947754E-05
  2.6559999E-02   -1.1656941E-05
  2.6595000E-02   -1.2402505E-05
  2.6629999E-02   -1.3185692E-05
  2.6665000E-02   -1.4007745E-05
  2.6699999E-02   -1.4869738E-05
  2.6735000E-02   -1.5772650E-05
  2.6769999E-02   -1.6717588E-05
  2.6805000E-02   -1.7705759E-05
  2.6839999E-02   -1.8738236E-05
  2.6875000E-02   -1.9815849E-05
  2.6910000E-02   -2.0939402E-05
  2.6945001E-02   -2.2109853E-05
  2.6980000E-02   -2.3328166E-05