 -4.8000002E-03    1.0000000E-24
 -4.7650002E-03    1.0000002E-24
 -4.7300002E-03    1.0000001E-24
 -4.6950001E-03    1.0000000E-24
 -4.6600001E-03    1.0000001E-24
 -4.6250001E-03    1.0000002E-24
 -4.5900000E-03    1.0000002E-24
 -4.5550000E-03    9.9999992E-25
 -4.5200000E-03    1.0000001E-24
 -4.4849999E-03    1.0000002E-24
 -4.4499999E-03    1.0000001E-24
 -4.4149999E-03    9.9999972E-25
 -4.3799998E-03    1.0000002E-24
 -4.3449998E-03    1.0000005E-24
 -4.3100002E-03    1.0000004E-24
 -4.2750002E-03    1.0000003E-24
 -4.2400002E-03    9.9999992E-25
 -4.2050001E-03    9.9999982E-25
 -4.1700001E-03    1.0000002E-24
 -4.1350001E-03    1.0000001E-24
 -4.1000000E-03    9.9999982E-25
 -4.0650000E-03    1.0000000E-24
 -4.0300000E-03    1.0000034E-24
 -3.9949999E-03    9.9998326E-25
 -3.9599999E-03    9.9996580E-25
 -3.9249999E-03    1.0007244E-24
 -3.8900001E-03    9.9745545E-25
 -3.8550000E-03    9.9700984E-25
 -3.8200000E-03    1.0450651E-24
 -3.7849999E-03    9.0903568E-25
 -3.7499999E-03    7.7873514E-25
 -3.7150001E-03    2.2814108E-24
 -3.6800001E-03    7.7612579E-26
 -3.6450000E-03   -6.1361833E-24
 -3.6100000E-03    1.9490666E-23
 -3.5750000E-03    1.1872071E-23
 -3.5399999E-03   -1.1664966E-22
 -3.5049999E-03    1.2088310E-22
 -3.4700001E-03    3.9582546E-22
 -3.4350001E-03   -1.0691473E-21
 -3.4000000E-03   -3.3738680E-22
 -3.3650000E-03    4.7533272E-21
 -3.3300000E-03   -4.0880635E-21
 -3.2949999E-03   -1.2988767E-20
 -3.2599999E-03    2.7527210E-20
 -3.2250001E-03    1.6068198E-20
 -3.1900001E-03   -1.0165638E-19
 -3.1550000E-03    4.3182437E-20
 -3.1200000E-03    2.5316398E-19
 -3.0850000E-03   -3.3108405E-19
 -3.0499999E-03   -3.8903390E-19
 -3.0149999E-03    1.1433633E-18
 -2.9800001E-03    2.5889734E-20
 -2.9450001E-03   -2.6812826E-18
 -2.9100000E-03    2.0505158E-18
 -2.8750000E-03    4.2925231E-18
 -2.8400000E-03   -7.7324091E-18
 -2.8049999E-03   -3.1440860E-18
 -2.7699999E-03    1.8284121E-17
 -2.7350001E-03   -6.8093169E-18
 -2.7000001E-03   -3.1219881E-17
 -2.6650000E-03    3.3482531E-17
 -2.6300000E-03    3.6672950E-17
 -2.5950000E-03   -8.0842545E-17
 -2.5599999E-03   -1.7745994E-17
 -2.5249999E-03    1.3986729E-16
 -2.4900001E-03   -3.9159157E-17
 -2.4550001E-03   -1.8455200E-16
 -2.4200000E-03    1.2335727E-16
 -2.3850000E-03    1.8700625E-16
 -2.3500000E-03   -1.8192672E-16
 -2.3149999E-03   -1.6008179E-16
 -2.2799999E-03    1.3374515E-16
 -2.2450001E-03    2.1154832E-16
 -2.2100001E-03    5.8487321E-17
 -2.1750000E-03   -5.6005098E-16
 -2.1400000E-03   -2.6861964E-16
 -2.1050000E-03    1.4540824E-15
 -2.0699999E-03    1.0779966E-16
 -2.0349999E-03   -2.9889734E-15
 -2.0000001E-03    1.0543151E-15
 -1.9650001E-03    4.9211420E-15
 -1.9300000E-03   -3.8975095E-15
 -1.8950000E-03   -6.6364697E-15
 -1.8600000E-03    8.8858034E-15
 -1.8250000E-03    7.3327041E-15
 -1.7900000E-03   -1.6187730E-14
 -1.7550000E-03   -6.2656721E-15
 -1.7199999E-03    2.5999349E-14
 -1.6850000E-03    2.7855957E-15
 -1.6500000E-03   -3.9069910E-14
 -1.6150000E-03    4.0355915E-15
 -1.5800000E-03    5.6749507E-14
 -1.5450000E-03   -1.6173096E-14
 -1.5100000E-03   -8.0172211E-14
 -1.4750001E-03    3.7339069E-14
 -1.4400000E-03    1.0938167E-13
 -1.4050000E-03   -7.2401781E-14
 -1.3700000E-03   -1.4358982E-13
 -1.3350000E-03    1.2474783E-13
 -1.3000000E-03    1.8209288E-13
 -1.2650000E-03   -1.9389908E-13
 -1.2300001E-03   -2.2439338E-13
 -1.1950000E-03    2.7797797E-13
 -1.1600000E-03    2.7039718E-13
 -1.1250000E-03   -3.7993710E-13
 -1.0900000E-03   -3.2139038E-13
 -1.0550000E-03    5.0761657E-13
 -1.0200000E-03    3.7524839E-13
 -9.8500005E-04   -6.6472311E-13
 -9.5000002E-04   -4.1141418E-13
 -9.1499998E-04    8.4926711E-13
 -8.8000001E-04    3.8568703E-13
 -8.4499997E-04   -1.0678026E-12
 -8.1000000E-04   -2.5991446E-13
 -7.7500002E-04    1.3395019E-12
 -7.3999999E-04    3.6006036E-14
 -7.0500001E-04   -1.6819433E-12
 -6.6999998E-04    2.6632461E-13
 -6.3500000E-04    2.1321675E-12
 -6.0000003E-04   -6.5184316E-13
 -5.6499999E-04   -2.8021710E-12
 -5.3000002E-04    1.1120562E-12
 -4.9499999E-04    3.8354706E-12
 -4.6000001E-04   -1.5678343E-12
 -4.2500001E-04   -5.2526729E-12
 -3.9000000E-04    1.9307750E-12
 -3.5500000E-04    6.9353594E-12
 -3.1999999E-04   -2.1347876E-12
 -2.8499999E-04   -8.7616147E-12
 -2.5000001E-04    1.9913613E-12
 -2.1499999E-04    1.0517668E-11
 -1.8000000E-04   -1.3143049E-12
 -1.4500000E-04   -1.1789117E-11
 -1.1000000E-04    4.4787234E-13
 -7.5000004E-05    1.2493875E-11
 -3.9999999E-05   -3.5504877E-14
 -4.9999999E-06   -1.3160611E-11
  2.9999999E-05   -4.7781644E-14
  6.5000000E-05    1.3616205E-11
  9.9999997E-05    3.0469544E-14
  1.3499999E-04   -1.2605652E-11
  1.7000000E-04    1.7178344E-12
  2.0500000E-04    1.1008888E-11
  2.3999999E-04   -6.4544346E-12
  2.7500000E-04   -1.2584471E-11
  3.1000000E-04    1.0755062E-11
  3.4500001E-04    1.7129950E-11
  3.8000001E-04   -1.1662765E-11
  4.1499999E-04   -1.9177491E-11
  4.4999999E-04    1.5269640E-11
  4.8500000E-04    2.1052689E-11
  5.2000000E-04   -2.5838991E-11
  5.5499998E-04   -3.3578435E-11
  5.9000001E-04    2.9807053E-11
  6.2499999E-04    5.0944644E-11
  6.6000002E-04   -1.7167469E-11
  6.9500000E-04   -5.1928593E-11
  7.3000003E-04    9.2154990E-12
  7.6500000E-04    4.5614967E-11
  7.9999998E-04   -1.9607288E-11
  8.3500001E-04   -6.5229211E-11
  8.6999999E-04    1.2421067E-11
  9.0500002E-04    9.1279997E-11
  9.4000000E-04    2.7299593E-11
  9.7499997E-04   -7.1468630E-11
  1.0100000E-03   -3.6703324E-11
  1.0450000E-03    4.1945742E-11
  1.0800000E-03   -5.5686016E-14
  1.1150000E-03   -7.5616374E-11
  1.1500000E-03   -1.6425621E-11
  1.1849999E-03    1.0302241E-10
  1.2200000E-03    9.1182575E-11
  1.2550000E-03   -2.9337161E-11
  1.2900000E-03   -6.9884210E-11
  1.3250000E-03   -1.6656522E-11
  1.3600000E-03   -3.0532080E-11
  1.3950000E-03   -8.7096469E-11
  1.4299999E-03   -6.5690097E-12
  1.4650000E-03    1.3930181E-10
  1.5000000E-03    1.1619752E-10
  1.5350000E-03   -1.9318193E-11
  1.5700000E-03   -2.9256920E-11
  1.6050000E-03    3.2082764E-11
  1.6400000E-03   -8.1325981E-11
  1.6749999E-03   -2.5651728E-10
  1.7100000E-03   -1.0432542E-10
  1.7450000E-03    2.6054162E-10
  1.7800000E-03    2.6016672E-10
  1.8150000E-03   -6.2932083E-11
  1.8500000E-03   -6.4147909E-11
  1.8850000E-03    2.0057248E-10
  1.9200000E-03    4.4520766E-11
  1.9550000E-03   -4.3976897E-10
  1.9900000E-03   -4.3450060E-10
  2.0250001E-03    1.5650499E-10
  2.0600001E-03    4.7007598E-10
  2.0949999E-03    1.1304352E-10
  2.1299999E-03   -1.1588894E-10
  2.1650000E-03    2.7703265E-10
  2.2000000E-03    3.6514564E-10
  2.2350000E-03   -3.8329531E-10
  2.2700001E-03   -8.0578039E-10
  2.3050001E-03   -2.1563154E-10
  2.3399999E-03    3.4525108E-10
  2.3749999E-03    2.3980229E-10
  2.4100000E-03    1.7845164E-10
  2.4450000E-03    4.8956722E-10
  2.4800000E-03    4.6971188E-10
  2.5150001E-03   -2.4548621E-10
  2.5500001E-03   -8.2877377E-10
  2.5849999E-03   -5.0170551E-10
  2.6199999E-03    4.5394931E-11
  2.6550000E-03   -4.9021208E-12
  2.6900000E-03    4.3442843E-11
  2.7250000E-03    6.6128042E-10
  2.7600001E-03    8.1126761E-10
  2.7950001E-03    6.7673478E-11
  2.8299999E-03   -5.6592886E-10
  2.8649999E-03   -5.1605142E-10
  2.9000000E-03   -2.9688996E-10
  2.9350000E-03   -4.1361392E-10
  2.9700000E-03   -3.7655820E-10
  3.0050001E-03    4.6450666E-10
  3.0400001E-03    1.0858743E-09
  3.0749999E-03    3.5011119E-10
  3.1099999E-03   -4.4043186E-10
  3.1450000E-03   -1.8506774E-10
  3.1800000E-03   -6.5181173E-11
  3.2150000E-03   -5.0571136E-10
  3.2500001E-03   -6.9513534E-10
  3.2850001E-03   -5.1995758E-10
  3.3199999E-03    1.0011540E-10
  3.3549999E-03    6.0166683E-10
  3.3900000E-03   -2.4460026E-11
  3.4250000E-03   -3.0382180E-10
  3.4600000E-03    5.8710348E-10
  3.4950001E-03    9.2968404E-11
  3.5300001E-03   -1.4185847E-09
  3.5649999E-03   -1.1453317E-09
  3.5999999E-03   -4.8740356E-10
  3.6350000E-03   -5.7293226E-10
  3.6700000E-03    1.0909135E-10
  3.7050000E-03    4.4835351E-11
  3.7400001E-03   -9.6904917E-10
  3.7750001E-03   -2.0909935E-10
  3.8099999E-03   -2.1132852E-10
  3.8449999E-03   -2.3553541E-09
  3.8800000E-03   -1.8740445E-09
  3.9149998E-03   -6.6541495E-10
  3.9499998E-03   -2.6884615E-09
  3.9849998E-03   -2.6654814E-09
  4.0199999E-03   -4.3903214E-10
  4.0549999E-03   -1.7341462E-09
  4.0899999E-03   -2.4186300E-09
  4.1250000E-03   -9.6761321E-10
  4.1600000E-03   -3.1450964E-09
  4.1950000E-03   -3.8299479E-09
  4.2300001E-03   -2.5956515E-10
  4.2650001E-03   -1.6270514E-09
  4.3000001E-03   -4.0453361E-09
  4.3350002E-03   -5.7759292E-10
  4.3700002E-03   -7.9784473E-10
  4.4049998E-03   -3.4260901E-09
  4.4399998E-03    9.8616360E-10
  4.4749998E-03    2.6009896E-09
  4.5099999E-03   -3.4006836E-10
  4.5449999E-03    4.3291979E-09
  4.5799999E-03    7.5754398E-09
  4.6150000E-03    4.2742361E-09
  4.6500000E-03    9.5561932E-09
  4.6850001E-03    1.6241140E-08
  4.7200001E-03    1.4120674E-08
  4.7550001E-03    2.0058037E-08
  4.7900002E-03    3.1270897E-08
  4.8250002E-03    3.2760276E-08
  4.8600002E-03    3.9975411E-08
  4.8949998E-03    5.4394345E-08
  4.9299998E-03    5.8149002E-08
  4.9649999E-03    6.5609008E-08
  4.9999999E-03    8.3571543E-08
  5.0349999E-03    9.2807738E-08
  5.0700000E-03    1.0558827E-07
  5.1050000E-03    1.3110376E-07
  5.1400000E-03    1.4563128E-07
  5.1750001E-03    1.6005407E-07
  5.2100001E-03    1.9264226E-07
  5.2450001E-03    2.1783249E-07
  5.2800002E-03    2.3776995E-07
  5.3150002E-03    2.7535498E-07
  5.3500002E-03    3.0893327E-07
  5.3849998E-03    3.3704737E-07
  5.4199998E-03    3.8511268E-07
  5.4549999E-03    4.3000853E-07
  5.4899999E-03    4.6381822E-07
  5.5249999E-03    5.1902379E-07
  5.5600000E-03    5.7750481E-07
  5.5950000E-03    6.2215105E-07
  5.6300000E-03    6.8583182E-07
  5.6650001E-03    7.5531665E-07
  5.7000001E-03    8.0624699E-07
  5.7350001E-03    8.7339902E-07
  5.7700002E-03    9.5384610E-07
  5.8050002E-03    1.0173430E-06
  5.8400002E-03    1.0923893E-06
  5.8749998E-03    1.1817582E-06
  5.9099998E-03    1.2546819E-06
  5.9449999E-03    1.3377630E-06
  5.9799999E-03    1.4365279E-06
  6.0149999E-03    1.5148104E-06
  6.0500000E-03    1.5976850E-06
  6.0850000E-03    1.6987746E-06
  6.1200000E-03    1.7786917E-06
  6.1550001E-03    1.8589266E-06
  6.1900001E-03    1.9616889E-06
  6.2250001E-03    2.0441901E-06
  6.2600002E-03    2.1202036E-06
  6.2950002E-03    2.2210356E-06
  6.3299998E-03    2.3038945E-06
  6.3649998E-03    2.3720327E-06
  6.3999998E-03    2.4658545E-06
  6.4349999E-03    2.5492284E-06
  6.4699999E-03    2.6126754E-06
  6.5049999E-03    2.6977928E-06
  6.5400000E-03    2.7781618E-06
  6.5750000E-03    2.8369627E-06
  6.6100000E-03    2.9147072E-06
  6.6450001E-03    2.9964431E-06
  6.6800001E-03    3.0627662E-06
  6.7150001E-03    3.1463715E-06
  6.7500002E-03    3.2342255E-06
  6.7850002E-03    3.3079177E-06
  6.8199998E-03    3.4016537E-06
  6.8549998E-03    3.5065484E-06
  6.8899998E-03    3.6036149E-06
  6.9249999E-03    3.7290058E-06
  6.9599999E-03    3.8752437E-06
  6.9949999E-03    4.0152240E-06
  7.0300000E-03    4.1878934E-06
  7.0650000E-03    4.3984146E-06
  7.1000000E-03    4.6119039E-06
  7.1350001E-03    4.8580650E-06
  7.1700001E-03    5.1562379E-06
  7.2050001E-03    5.4765210E-06
  7.2400002E-03    5.8371816E-06
  7.2750002E-03    6.2620006E-06
  7.3099998E-03    6.7278888E-06
  7.3449998E-03    7.2446855E-06
  7.3799998E-03    7.8378052E-06
  7.4149999E-03    8.4935082E-06
  7.4499999E-03    9.2154687E-06
  7.4850000E-03    1.0024752E-05
  7.5200000E-03    1.0917413E-05
  7.5550000E-03    1.1901025E-05
  7.5900001E-03    1.2992441E-05
  7.6250001E-03    1.4186007E-05
  7.6600001E-03    1.5489413E-05
  7.6950002E-03    1.6923834E-05
  7.7300002E-03    1.8489804E-05
  7.7650002E-03    2.0195028E-05
  7.7999998E-03    2.2062328E-05
  7.8349998E-03    2.4096336E-05
  7.8699999E-03    2.6299471E-05
  7.9049999E-03    2.8692748E-05
  7.9399999E-03    3.1294468E-05
  7.9750000E-03    3.4114248E-05
  8.0100000E-03    3.7167603E-05
  8.0450000E-03    4.0475221E-05
  8.0800001E-03    4.4054432E-05
  8.1150001E-03    4.7921920E-05
  8.1500001E-03    5.2101695E-05
  8.1850002E-03    5.6619920E-05
  8.2200002E-03    6.1501392E-05
  8.2550002E-03    6.6776789E-05
  8.2900003E-03    7.2473515E-05
  8.3250003E-03    7.8616613E-05
  8.3600003E-03    8.5249587E-05
  8.3950004E-03    9.2413669E-05
  8.4300004E-03    1.0013269E-04
  8.4650004E-03    1.0845095E-04
  8.5000005E-03    1.1742067E-04
  8.5349996E-03    1.2706949E-04
  8.5699996E-03    1.3744451E-04
  8.6049996E-03    1.4861164E-04
  8.6399997E-03    1.6060541E-04
  8.6749997E-03    1.7346947E-04
  8.7099997E-03    1.8727579E-04
  8.7449998E-03    2.0206829E-04
  8.7799998E-03    2.1788861E-04
  8.8149998E-03    2.3480714E-04
  8.8499999E-03    2.5287399E-04
  8.8849999E-03    2.7213368E-04
  8.9199999E-03    2.9265136E-04
  8.9550000E-03    3.1446741E-04
  8.9900000E-03    3.3761701E-04
  9.0250000E-03    3.6215939E-04
  9.0600001E-03    3.8812801E-04
  9.0950001E-03    4.1554449E-04
  9.1300001E-03    4.4445076E-04
  9.1650002E-03    4.7485789E-04
  9.2000002E-03    5.0676113E-04
  9.2350002E-03    5.4018322E-04
  9.2700003E-03    5.7511433E-04
  9.3050003E-03    6.1150896E-04
  9.3400003E-03    6.4934709E-04
  9.3750004E-03    6.8858999E-04
  9.4100004E-03    7.2915427E-04
  9.4450004E-03    7.7095808E-04
  9.4799995E-03    8.1390206E-04
  9.5149996E-03    8.5785124E-04
  9.5499996E-03    9.0266910E-04
  9.5849996E-03    9.4819267E-04
  9.6199997E-03    9.9421549E-04
  9.6549997E-03    1.0405213E-03
  9.6899997E-03    1.0868697E-03
  9.7249998E-03    1.1329821E-03
  9.7599998E-03    1.1785617E-03
  9.7949998E-03    1.2232744E-03
  9.8299999E-03    1.2667470E-03
  9.8649999E-03    1.3085993E-03
  9.8999999E-03    1.3484103E-03
  9.9350000E-03    1.3857119E-03
  9.9700000E-03    1.4200308E-03
  1.0005000E-02    1.4508648E-03
  1.0040000E-02    1.4776596E-03
  1.0075000E-02    1.4998518E-03
  1.0110000E-02    1.5168611E-03
  1.0145000E-02    1.5280620E-03
  1.0180000E-02    1.5328217E-03
  1.0215000E-02    1.5305054E-03
  1.0250000E-02    1.5204446E-03
  1.0285000E-02    1.5019594E-03
  1.0320000E-02    1.4743790E-03
  1.0355000E-02    1.4370277E-03
  1.0390000E-02    1.3892315E-03
  1.0425000E-02    1.3303305E-03
  1.0460000E-02    1.2596815E-03
  1.0495000E-02    1.1766661E-03
  1.0530000E-02    1.0806908E-03
  1.0565000E-02    9.7119779E-04
  1.0600000E-02    8.4768445E-04
  1.0635000E-02    7.0969516E-04
  1.0670000E-02    5.5682124E-04
  1.0705000E-02    3.8873128E-04
  1.0740000E-02    2.0517966E-04
  1.0775000E-02    5.9851609E-06
  1.0810000E-02   -2.0895408E-04
  1.0845000E-02   -4.3962777E-04
  1.0880000E-02   -6.8592129E-04
  1.0915000E-02   -9.4762893E-04
  1.0950000E-02   -1.2244252E-03
  1.0985000E-02   -1.5158545E-03
  1.1020000E-02   -1.8213526E-03
  1.1055000E-02   -2.1402375E-03
  1.1090000E-02   -2.4716819E-03
  1.1125000E-02   -2.8147348E-03
  1.1160000E-02   -3.1683296E-03
  1.1195000E-02   -3.5312532E-03
  1.1230000E-02   -3.9021722E-03
  1.1265000E-02   -4.2796461E-03
  1.1300000E-02   -4.6621030E-03
  1.1335000E-02   -5.0478573E-03
  1.1370000E-02   -5.4351329E-03
  1.1405000E-02   -5.8220401E-03
  1.1440000E-02   -6.2066084E-03
  1.1475000E-02   -6.5868055E-03
  1.1510000E-02   -6.9605247E-03
  1.1545000E-02   -7.3256008E-03
  1.1580000E-02   -7.6798503E-03
  1.1615000E-02   -8.0210632E-03
  1.1650000E-02   -8.3470158E-03
  1.1685000E-02   -8.6555155E-03
  1.1720000E-02   -8.9443894E-03
  1.1755000E-02   -9.2114937E-03
  1.1790000E-02   -9.4547765E-03
  1.1825000E-02   -9.6722664E-03
  1.1860000E-02   -9.8620616E-03
  1.1895000E-02   -1.0022390E-02
  1.1930000E-02   -1.0151637E-02
  1.1965000E-02   -1.0248298E-02
  1.2000000E-02   -1.0311039E-02
  1.2035000E-02   -1.0338724E-02
  1.2070000E-02   -1.0330394E-02
  1.2105000E-02   -1.0285268E-02
  1.2140000E-02   -1.0202792E-02
  1.2175000E-02   -1.0082638E-02
  1.2210000E-02   -9.9246819E-03
  1.2245000E-02   -9.7290212E-03
  1.2280000E-02   -9.4960006E-03
  1.2315000E-02   -9.2261788E-03
  1.2350000E-02   -8.9203417E-03
  1.2385000E-02   -8.5795056E-03
  1.2420000E-02   -8.2048960E-03
  1.2455000E-02   -7.7979425E-03
  1.2490000E-02   -7.3602758E-03
  1.2525000E-02   -6.8937219E-03
  1.2560000E-02   -6.4002732E-03
  1.2595000E-02   -5.8820741E-03
  1.2630000E-02   -5.3414092E-03
  1.2665000E-02   -4.7807093E-03
  1.2700000E-02   -4.2025014E-03
  1.2735000E-02   -3.6093825E-03
  1.2770000E-02   -3.0040338E-03
  1.2805000E-02   -2.3891965E-03
  1.2840000E-02   -1.7676073E-03
  1.2875000E-02   -1.1420117E-03
  1.2910000E-02   -5.1517138E-04
  1.2945000E-02    1.1020309E-04
  1.2980000E-02    7.3146907E-04
  1.3015000E-02    1.3460342E-03
  1.3050000E-02    1.9514038E-03
  1.3085000E-02    2.5451952E-03
  1.3120000E-02    3.1251260E-03
  1.3155000E-02    3.6890632E-03
  1.3190000E-02    4.2350353E-03
  1.3225000E-02    4.7611902E-03
  1.3260000E-02    5.2658543E-03
  1.3295000E-02    5.7475581E-03
  1.3330000E-02    6.2049744E-03
  1.3365000E-02    6.6369548E-03
  1.3400000E-02    7.0425607E-03
  1.3435000E-02    7.4210167E-03
  1.3470000E-02    7.7717244E-03
  1.3505000E-02    8.0942838E-03
  1.3540000E-02    8.3884569E-03
  1.3575000E-02    8.6541725E-03
  1.3610000E-02    8.8915285E-03
  1.3645000E-02    9.1007650E-03
  1.3680000E-02    9.2822714E-03
  1.3715000E-02    9.4365785E-03
  1.3750000E-02    9.5643373E-03
  1.3785000E-02    9.6663069E-03
  1.3820000E-02    9.7433561E-03
  1.3855000E-02    9.7964332E-03
  1.3890000E-02    9.8265633E-03
  1.3925000E-02    9.8348502E-03
  1.3960000E-02    9.8224273E-03
  1.3995000E-02    9.7904820E-03
  1.4030000E-02    9.7402483E-03
  1.4065000E-02    9.6729612E-03
  1.4100000E-02    9.5898584E-03
  1.4135000E-02    9.4921999E-03
  1.4170000E-02    9.3812328E-03
  1.4205000E-02    9.2581687E-03
  1.4240000E-02    9.1242166E-03
  1.4275000E-02    8.9805489E-03
  1.4310000E-02    8.8282814E-03
  1.4345000E-02    8.6685158E-03
  1.4380000E-02    8.5022952E-03
  1.4415000E-02    8.3305966E-03
  1.4450000E-02    8.1543699E-03
  1.4485000E-02    7.9745110E-03
  1.4520000E-02    7.7918330E-03
  1.4555000E-02    7.6070921E-03
  1.4590000E-02    7.4210237E-03
  1.4625000E-02    7.2342828E-03
  1.4660000E-02    7.0474432E-03
  1.4695000E-02    6.8610637E-03
  1.4730000E-02    6.6756569E-03
  1.4765000E-02    6.4916313E-03
  1.4800000E-02    6.3093589E-03
  1.4835000E-02    6.1292159E-03
  1.4870000E-02    5.9515014E-03
  1.4905000E-02    5.7764375E-03
  1.4940000E-02    5.6042564E-03
  1.4975000E-02    5.4351604E-03
  1.5010000E-02    5.2692746E-03
  1.5045000E-02    5.1066941E-03
  1.5080000E-02    4.9475306E-03
  1.5115000E-02    4.7918535E-03
  1.5150000E-02    4.6396852E-03
  1.5185000E-02    4.4910461E-03
  1.5220000E-02    4.3459637E-03
  1.5255000E-02    4.2044246E-03
  1.5290000E-02    4.0663816E-03
  1.5325000E-02    3.9318078E-03
  1.5360000E-02    3.8006662E-03
  1.5395000E-02    3.6728880E-03
  1.5430000E-02    3.5484189E-03
  1.5465000E-02    3.4272149E-03
  1.5500000E-02    3.3091842E-03
  1.5535000E-02    3.1942469E-03
  1.5570000E-02    3.0823594E-03
  1.5605000E-02    2.9734289E-03
  1.5640000E-02    2.8673527E-03
  1.5675001E-02    2.7640865E-03
  1.5710000E-02    2.6635590E-03
  1.5745001E-02    2.5656577E-03
  1.5780000E-02    2.4703257E-03
  1.5814999E-02    2.3775059E-03
  1.5850000E-02    2.2870903E-03
  1.5884999E-02    2.1990153E-03
  1.5920000E-02    2.1132377E-03
  1.5954999E-02    2.0296567E-03
  1.5990000E-02    1.9481941E-03
  1.6024999E-02    1.8688239E-03
  1.6060000E-02    1.7914707E-03
  1.6094999E-02    1.7160354E-03
  1.6130000E-02    1.6424819E-03
  1.6164999E-02    1.5707705E-03
  1.6200000E-02    1.5008106E-03
  1.6235000E-02    1.4325306E-03
  1.6270000E-02    1.3658999E-03
  1.6305000E-02    1.3008688E-03
  1.6340001E-02    1.2373599E-03
  1.6375000E-02    1.1753161E-03
  1.6410001E-02    1.1147077E-03
  1.6445000E-02    1.0554909E-03
  1.6480001E-02    9.9760294E-04
  1.6515000E-02    9.4100129E-04
  1.6550001E-02    8.8566152E-04
  1.6585000E-02    8.3153258E-04
  1.6620001E-02    7.7855500E-04
  1.6655000E-02    7.2670070E-04
  1.6690001E-02    6.7594246E-04
  1.6725000E-02    6.2622986E-04
  1.6759999E-02    5.7753245E-04
  1.6795000E-02    5.2983710E-04
  1.6829999E-02    4.8310219E-04
  1.6865000E-02    4.3728735E-04
  1.6899999E-02    3.9238838E-04
  1.6935000E-02    3.4838519E-04
  1.6969999E-02    3.0523713E-04
  1.7005000E-02    2.6293809E-04
  1.7039999E-02    2.2148684E-04
  1.7075000E-02    1.8085117E-04
  1.7109999E-02    1.4101515E-04
  1.7145000E-02    1.0197805E-04
  1.7180000E-02    6.3721636E-05
  1.7215000E-02    2.6238913E-05
  1.7250000E-02   -1.0469725E-05
  1.7285001E-02   -4.6420671E-05
  1.7320000E-02   -8.1612394E-05
  1.7355001E-02   -1.1604400E-04
  1.7390000E-02   -1.4974091E-04
  1.7425001E-02   -1.8269186E-04
  1.7460000E-02   -2.1487678E-04
  1.7495001E-02   -2.4633014E-04
  1.7530000E-02   -2.7705063E-04
  1.7565001E-02   -3.0700144E-04
  1.7600000E-02   -3.3622122E-04
  1.7635001E-02   -3.6472935E-04
  1.7670000E-02   -3.9246777E-04
  1.7704999E-02   -4.1946114E-04
  1.7740000E-02   -4.4576835E-04
  1.7774999E-02   -4.7133412E-04
  1.7810000E-02   -4.9613765E-04
  1.7844999E-02   -5.2025478E-04
  1.7880000E-02   -5.4367428E-04
  1.7914999E-02   -5.6634779E-04
  1.7950000E-02   -5.8833376E-04
  1.7984999E-02   -6.0966978E-04
  1.8020000E-02   -6.3031021E-04
  1.8054999E-02   -6.5027206E-04
  1.8090000E-02   -6.6961191E-04
  1.8124999E-02   -6.8830926E-04
  1.8160000E-02   -7.0634711E-04
  1.8195000E-02   -7.2378741E-04
  1.8230001E-02   -7.4065808E-04
  1.8265000E-02   -7.5692841E-04
  1.8300001E-02   -7.7263318E-04
  1.8335000E-02   -7.8783481E-04
  1.8370001E-02   -8.0250454E-04
  1.8405000E-02   -8.1663084E-04
  1.8440001E-02   -8.3029980E-04
  1.8475000E-02   -8.4353198E-04
  1.8510001E-02   -8.5627916E-04
  1.8545000E-02   -8.6859427E-04
  1.8580001E-02   -8.8054163E-04
  1.8615000E-02   -8.9208281E-04
  1.8650001E-02   -9.0322777E-04
  1.8685000E-02   -9.1405038E-04
  1.8719999E-02   -9.2454086E-04
  1.8755000E-02   -9.3467900E-04
  1.8789999E-02   -9.4452687E-04
  1.8825000E-02   -9.5411181E-04
  1.8859999E-02   -9.6340152E-04
  1.8895000E-02   -9.7241916E-04
  1.8929999E-02   -9.8121702E-04
  1.8965000E-02   -9.8978332E-04
  1.8999999E-02   -9.9809119E-04
  1.9035000E-02   -1.0061801E-03
  1.9069999E-02   -1.0140947E-03
  1.9105000E-02   -1.0218031E-03
  1.9140000E-02   -1.0292847E-03
  1.9175000E-02   -1.0365957E-03
  1.9210000E-02   -1.0437511E-03
  1.9245001E-02   -1.0507010E-03
  1.9280000E-02   -1.0574576E-03
  1.9315001E-02   -1.0640636E-03
  1.9350000E-02   -1.0704935E-03
  1.9385001E-02   -1.0767304E-03
  1.9420000E-02   -1.0828013E-03
  1.9455001E-02   -1.0886971E-03
  1.9490000E-02   -1.0944072E-03
  1.9525001E-02   -1.0999572E-03
  1.9560000E-02   -1.1053288E-03
  1.9595001E-02   -1.1104894E-03
  1.9630000E-02   -1.1154729E-03
  1.9664999E-02   -1.1202946E-03
  1.9700000E-02   -1.1249076E-03
  1.9734999E-02   -1.1293136E-03
  1.9770000E-02   -1.1335547E-03
  1.9804999E-02   -1.1376099E-03
  1.9840000E-02   -1.1414360E-03
  1.9874999E-02   -1.1450524E-03
  1.9910000E-02   -1.1484856E-03
  1.9944999E-02   -1.1517082E-03
  1.9980000E-02   -1.1546959E-03
  2.0014999E-02   -1.1574758E-03
  2.0050000E-02   -1.1600602E-03
  2.0085000E-02   -1.1624205E-03
  2.0120000E-02   -1.1645535E-03
  2.0155000E-02   -1.1664818E-03
  2.0190001E-02   -1.1681984E-03
  2.0225000E-02   -1.1696951E-03
  2.0260001E-02   -1.1709826E-03
  2.0295000E-02   -1.1720631E-03
  2.0330001E-02   -1.1729408E-03
  2.0365000E-02   -1.1736240E-03
  2.0400001E-02   -1.1740974E-03
  2.0435000E-02   -1.1743632E-03
  2.0470001E-02   -1.1744513E-03
  2.0505000E-02   -1.1743529E-03
  2.0540001E-02   -1.1740535E-03
  2.0575000E-02   -1.1735889E-03
  2.0609999E-02   -1.1729752E-03
  2.0645000E-02   -1.1721845E-03
  2.0679999E-02   -1.1712272E-03
  2.0715000E-02   -1.1701380E-03
  2.0749999E-02   -1.1689190E-03
  2.0785000E-02   -1.1675627E-03
  2.0819999E-02   -1.1660841E-03
  2.0855000E-02   -1.1645098E-03
  2.0889999E-02   -1.1628502E-03
  2.0925000E-02   -1.1610866E-03
  2.0959999E-02   -1.1592308E-03
  2.0995000E-02   -1.1573308E-03
  2.1029999E-02   -1.1553831E-03
  2.1065000E-02   -1.1533628E-03
  2.1100000E-02   -1.1513077E-03
  2.1135001E-02   -1.1492474E-03
  2.1170000E-02   -1.1471575E-03
  2.1205001E-02   -1.1450456E-03
  2.1240000E-02   -1.1429497E-03
  2.1275001E-02   -1.1408693E-03
  2.1310000E-02   -1.1387975E-03
  2.1345001E-02   -1.1367432E-03
  2.1380000E-02   -1.1347176E-03
  2.1415001E-02   -1.1327375E-03
  2.1450000E-02   -1.1308078E-03
  2.1485001E-02   -1.1289138E-03
  2.1520000E-02   -1.1270653E-03
  2.1555001E-02   -1.1252873E-03
  2.1590000E-02   -1.1235666E-03
  2.1624999E-02   -1.1218777E-03
  2.1660000E-02   -1.1202320E-03
  2.1694999E-02   -1.1186542E-03
  2.1730000E-02   -1.1171339E-03
  2.1764999E-02   -1.1156435E-03
  2.1800000E-02   -1.1141879E-03
  2.1834999E-02   -1.1127874E-03
  2.1870000E-02   -1.1114207E-03
  2.1904999E-02   -1.1100558E-03
  2.1940000E-02   -1.1087025E-03
  2.1974999E-02   -1.1073750E-03
  2.2010000E-02   -1.1060527E-03
  2.2045000E-02   -1.1047114E-03
  2.2080000E-02   -1.1033484E-03
  2.2115000E-02   -1.1019692E-03
  2.2150001E-02   -1.1005619E-03
  2.2185000E-02   -1.0990981E-03
  2.2220001E-02   -1.0975738E-03
  2.2255000E-02   -1.0960049E-03
  2.2290001E-02   -1.0943683E-03
  2.2325000E-02   -1.0926302E-03
  2.2360001E-02   -1.0908067E-03
  2.2395000E-02   -1.0889093E-03
  2.2430001E-02   -1.0868980E-03
  2.2465000E-02   -1.0847535E-03
  2.2500001E-02   -1.0825074E-03
  2.2535000E-02   -1.0801604E-03
  2.2569999E-02   -1.0776726E-03
  2.2605000E-02   -1.0750475E-03
  2.2639999E-02   -1.0723250E-03
  2.2675000E-02   -1.0694867E-03
  2.2709999E-02   -1.0664884E-03
  2.2745000E-02   -1.0633627E-03
  2.2779999E-02   -1.0601496E-03
  2.2815000E-02   -1.0568078E-03
  2.2849999E-02   -1.0533212E-03
  2.2885000E-02   -1.0497466E-03
  2.2919999E-02   -1.0460871E-03
  2.2955000E-02   -1.0423008E-03
  2.2990000E-02   -1.0384115E-03
  2.3025000E-02   -1.0344528E-03
  2.3060000E-02   -1.0304101E-03
  2.3095001E-02   -1.0262911E-03
  2.3130000E-02   -1.0221211E-03
  2.3165001E-02   -1.0178937E-03
  2.3200000E-02   -1.0136183E-03
  2.3235001E-02   -1.0093293E-03
  2.3270000E-02   -1.0050205E-03
  2.3305001E-02   -1.0006701E-03
  2.3340000E-02   -9.9630957E-04
  2.3375001E-02   -9.9197356E-04
  2.3410000E-02   -9.8763814E-04
  2.3445001E-02   -9.8329468E-04
  2.3480000E-02   -9.7900326E-04
  2.3514999E-02   -9.7477646E-04
  2.3550000E-02   -9.7054977E-04
  2.3584999E-02   -9.6633803E-04
  2.3620000E-02   -9.6221681E-04
  2.3654999E-02   -9.5815712E-04
  2.3690000E-02   -9.5411023E-04
  2.3724999E-02   -9.5013430E-04
  2.3760000E-02   -9.4625709E-04
  2.3794999E-02   -9.4242056E-04
  2.3830000E-02   -9.3861925E-04
  2.3864999E-02   -9.3489105E-04
  2.3900000E-02   -9.3122653E-04
  2.3934999E-02   -9.2761492E-04
  2.3970000E-02   -9.2407246E-04
  2.4005000E-02   -9.2059397E-04
  2.4040001E-02   -9.1716583E-04
  2.4075000E-02   -9.1379147E-04
  2.4110001E-02   -9.1046147E-04
  2.4145000E-02   -9.0715231E-04
  2.4180001E-02   -9.0387109E-04
  2.4215000E-02   -9.0064219E-04
  2.4250001E-02   -8.9743990E-04
  2.4285000E-02   -8.9422637E-04
  2.4320001E-02   -8.9103699E-04
  2.4355000E-02   -8.8789326E-04
  2.4390001E-02   -8.8472717E-04
  2.4425000E-02   -8.8152266E-04
  2.4460001E-02   -8.7834388E-04
  2.4495000E-02   -8.7516877E-04
  2.4529999E-02   -8.7193417E-04
  2.4565000E-02   -8.6867937E-04
  2.4599999E-02   -8.6543604E-04
  2.4635000E-02   -8.6214556E-04
  2.4669999E-02   -8.5878780E-04
  2.4705000E-02   -8.5540052E-04
  2.4739999E-02   -8.5197703E-04
  2.4775000E-02   -8.4848976E-04
  2.4809999E-02   -8.4495294E-04
  2.4845000E-02   -8.4137474E-04
  2.4879999E-02   -8.3773519E-04
  2.4915000E-02   -8.3403604E-04
  2.4950000E-02   -8.3028973E-04
  2.4985000E-02   -8.2647480E-04
  2.5020000E-02   -8.2258764E-04
  2.5055001E-02   -8.1866508E-04
  2.5090000E-02   -8.1469084E-04
  2.5125001E-02   -8.1063039E-04
  2.5160000E-02   -8.0653490E-04
  2.5195001E-02   -8.0242613E-04
  2.5230000E-02   -7.9823582E-04
  2.5265001E-02   -7.9397997E-04
  2.5300000E-02   -7.8973436E-04
  2.5335001E-02   -7.8545377E-04
  2.5370000E-02   -7.8109256E-04
  2.5405001E-02   -7.7672722E-04
  2.5440000E-02   -7.7238085E-04
  2.5474999E-02   -7.6798920E-04
  2.5510000E-02   -7.6356536E-04
  2.5544999E-02   -7.5916579E-04
  2.5580000E-02   -7.5477303E-04
  2.5614999E-02   -7.5036363E-04
  2.5650000E-02   -7.4597367E-04
  2.5684999E-02   -7.4162567E-04
  2.5720000E-02   -7.3729351E-04
  2.5754999E-02   -7.3298131E-04
  2.5790000E-02   -7.2872842E-04
  2.5824999E-02   -7.2452094E-04
  2.5860000E-02   -7.2033930E-04
  2.5895000E-02   -7.1623450E-04
  2.5930000E-02   -7.1221095E-04
  2.5965000E-02   -7.0821191E-04
  2.6000001E-02   -7.0427929E-04
  2.6035000E-02   -7.0046796E-04
  2.6070001E-02   -6.9671118E-04
  2.6105000E-02   -6.9299695E-04
  2.6140001E-02   -6.8940892E-04
  2.6175000E-02   -6.8591780E-04
  2.6210001E-02   -6.8245473E-04
  2.6245000E-02   -6.7907892E-04
  2.6280001E-02   -6.7582855E-04
  2.6315000E-02   -6.7264144E-04
  2.6350001E-02   -6.6951360E-04
  2.6385000E-02   -6.6649693E-04
  2.6419999E-02   -6.6356984E-04
  2.6455000E-02   -6.6068652E-04
  2.6489999E-02   -6.5786828E-04
  2.6525000E-02   -6.5513793E-04
  2.6559999E-02   -6.5245898E-04
  2.6595000E-02   -6.4981868E-04
  2.6629999E-02   -6.4725481E-04
  2.6665000E-02   -6.4474816E-04
  2.6699999E-02   -6.4224837E-04
  2.6735000E-02   -6.3978531E-04
  2.6769999E-02   -6.3737464E-04
  2.6805000E-02   -6.3495454E-04
  2.6839999E-02   -6.3253107E-04
  2.6875000E-02   -6.3015270E-04
  2.6910000E-02   -6.2777085E-04
  2.6945001E-02   -6.2535220E-04
  2.6980000E-02   -6.2294584E-04