 -4.8000002E-03    1.0000000E-24
 -4.7650002E-03    1.0000002E-24
 -4.7300002E-03    1.0000001E-24
 -4.6950001E-03    1.0000000E-24
 -4.6600001E-03    1.0000003E-24
 -4.6250001E-03    1.0000002E-24
 -4.5900000E-03    9.9999992E-25
 -4.5550000E-03    1.0000003E-24
 -4.5200000E-03    1.0000002E-24
 -4.4849999E-03    9.9999963E-25
 -4.4499999E-03    1.0000001E-24
 -4.4149999E-03    1.0000007E-24
 -4.3799998E-03    1.0000003E-24
 -4.3449998E-03    1.0000000E-24
 -4.3100002E-03    1.0000001E-24
 -4.2750002E-03    1.0000000E-24
 -4.2400002E-03    9.9999992E-25
 -4.2050001E-03    1.0000001E-24
 -4.1700001E-03    1.0000001E-24
 -4.1350001E-03    1.0000004E-24
 -4.1000000E-03    1.0000006E-24
 -4.0650000E-03    1.0000001E-24
 -4.0300000E-03    9.9999953E-25
 -3.9949999E-03    9.9999982E-25
 -3.9599999E-03    1.0000001E-24
 -3.9249999E-03    1.0000000E-24
 -3.8900001E-03    1.0000000E-24
 -3.8550000E-03    1.0000001E-24
 -3.8200000E-03    1.0000004E-24
 -3.7849999E-03    1.0000006E-24
 -3.7499999E-03    1.0000001E-24
 -3.7150001E-03    9.9999972E-25
 -3.6800001E-03    9.9999992E-25
 -3.6450000E-03    1.0000004E-24
 -3.6100000E-03    1.0000004E-24
 -3.5750000E-03    9.9999992E-25
 -3.5399999E-03    9.9999972E-25
 -3.5049999E-03    1.0000001E-24
 -3.4700001E-03    9.9999982E-25
 -3.4350001E-03    1.0000001E-24
 -3.4000000E-03    1.0000003E-24
 -3.3650000E-03    1.0000001E-24
 -3.3300000E-03    1.0000006E-24
 -3.2949999E-03    1.0000008E-24
 -3.2599999E-03    9.9999972E-25
 -3.2250001E-03    9.9999963E-25
 -3.1900001E-03    1.0000005E-24
 -3.1550000E-03    1.0000000E-24
 -3.1200000E-03    9.9999943E-25
 -3.0850000E-03    1.0000006E-24
 -3.0499999E-03    1.0000012E-24
 -3.0149999E-03    9.9999953E-25
 -2.9800001E-03    9.9999972E-25
 -2.9450001E-03    1.0000010E-24
 -2.9100000E-03    9.9999953E-25
 -2.8750000E-03    1.0000010E-24
 -2.8400000E-03    1.0000005E-24
 -2.8049999E-03    9.9998957E-25
 -2.7699999E-03    1.0000040E-24
 -2.7350001E-03    1.0000295E-24
 -2.7000001E-03    9.9993652E-25
 -2.6650000E-03    9.9992113E-25
 -2.6300000E-03    1.0003150E-24
 -2.5950000E-03    9.9997547E-25
 -2.5599999E-03    9.9935562E-25
 -2.5249999E-03    1.0007771E-24
 -2.4900001E-03    1.0015075E-24
 -2.4550001E-03    9.9668868E-25
 -2.4200000E-03    9.9812440E-25
 -2.3850000E-03    1.0089900E-24
 -2.3500000E-03    9.9602308E-25
 -2.3149999E-03    9.7559296E-25
 -2.2799999E-03    1.0189062E-24
 -2.2450001E-03    1.0369912E-24
 -2.2100001E-03    9.3039537E-25
 -2.1750000E-03    9.7158771E-25
 -2.1400000E-03    1.1469828E-24
 -2.1050000E-03    9.7647313E-25
 -2.0699999E-03    7.3101659E-25
 -2.0349999E-03    1.2100227E-24
 -2.0000001E-03    1.3760055E-24
 -1.9650001E-03    4.2269001E-25
 -1.9300000E-03    6.1429190E-25
 -1.8950000E-03    2.0418842E-24
 -1.8600000E-03    5.0929121E-25
 -1.8250000E-03   -1.4550912E-24
 -1.7900000E-03    2.8730989E-24
 -1.7550000E-03    4.0890439E-24
 -1.7199999E-03   -4.7116035E-24
 -1.6850000E-03   -8.4979637E-25
 -1.6500000E-03    1.4728890E-23
 -1.6150000E-03   -3.5812550E-24
 -1.5800000E-03   -1.5247096E-23
 -1.5450000E-03    2.2987673E-23
 -1.5100000E-03    1.7850696E-23
 -1.4750001E-03   -4.9143112E-23
 -1.4400000E-03   -2.7317665E-24
 -1.4050000E-03    8.4761665E-23
 -1.3700000E-03   -3.8752445E-23
 -1.3350000E-03   -1.2418907E-22
 -1.3000000E-03    1.2457752E-22
 -1.2650000E-03    1.9229793E-22
 -1.2300001E-03   -2.8534058E-22
 -1.1950000E-03   -2.0699940E-22
 -1.1600000E-03    5.2955028E-22
 -1.1250000E-03    1.2926300E-22
 -1.0900000E-03   -9.0915540E-22
 -1.0550000E-03   -2.4490965E-23
 -1.0200000E-03    1.2433964E-21
 -9.8500005E-04   -4.4416731E-22
 -9.5000002E-04   -1.7078967E-21
 -9.1499998E-04    1.0295641E-21
 -8.8000001E-04    2.0667126E-21
 -8.4499997E-04   -1.9694970E-21
 -8.1000000E-04   -2.2960413E-21
 -7.7500002E-04    3.1014759E-21
 -7.3999999E-04    1.8259994E-21
 -7.0500001E-04   -4.4306617E-21
 -6.6999998E-04   -3.1222526E-22
 -6.3500000E-04    5.1318927E-21
 -6.0000003E-04   -2.9087752E-21
 -5.6499999E-04   -4.8423670E-21
 -5.3000002E-04    6.4710606E-21
 -4.9499999E-04    3.1986808E-21
 -4.6000001E-04   -1.1806149E-20
 -4.2500001E-04   -4.7543665E-22
 -3.9000000E-04    2.0443749E-20
 -3.5500000E-04   -3.9377860E-21
 -3.1999999E-04   -2.5509651E-20
 -2.8499999E-04    1.7473195E-20
 -2.5000001E-04    3.4552656E-20
 -2.1499999E-04   -3.4226220E-20
 -1.8000000E-04   -5.1371722E-20
 -1.4500000E-04    4.7550335E-20
 -1.1000000E-04    6.9455745E-20
 -7.5000004E-05   -7.1192657E-20
 -3.9999999E-05   -8.2457409E-20
 -4.9999999E-06    1.2284042E-19
  2.9999999E-05    1.3021672E-19
  6.5000000E-05   -2.1133670E-19
  9.9999997E-05   -1.8240489E-19
  1.3499999E-04    2.7765380E-19
  1.7000000E-04    2.6710122E-19
  2.0500000E-04   -3.6659174E-19
  2.3999999E-04   -3.8568676E-19
  2.7500000E-04    4.7806593E-19
  3.1000000E-04    6.3791481E-19
  3.4500001E-04   -5.3773047E-19
  3.8000001E-04   -1.1019878E-18
  4.1499999E-04    2.7493315E-19
  4.4999999E-04    1.6171411E-18
  4.8500000E-04    2.8109034E-19
  5.2000000E-04   -2.1438019E-18
  5.5499998E-04   -1.2507036E-18
  5.9000001E-04    2.5192714E-18
  6.2499999E-04    3.1418731E-18
  6.6000002E-04   -2.1349538E-18
  6.9500000E-04   -5.5703178E-18
  7.3000003E-04    8.1611785E-19
  7.6500000E-04    8.2093234E-18
  7.9999998E-04    3.2930519E-18
  8.3500001E-04   -1.0546179E-17
  8.6999999E-04   -1.1350984E-17
  9.0500002E-04    1.1067142E-17
  9.4000000E-04    2.3323137E-17
  9.7499997E-04   -7.0456540E-18
  1.0100000E-03   -4.1815032E-17
  1.0450000E-03   -4.6744059E-18
  1.0800000E-03    6.4146877E-17
  1.1150000E-03    2.9048509E-17
  1.1500000E-03   -8.5853691E-17
  1.1849999E-03   -6.6895856E-17
  1.2200000E-03    1.0398681E-16
  1.2550000E-03    1.2537223E-16
  1.2900000E-03   -1.1020818E-16
  1.3250000E-03   -2.0160246E-16
  1.3600000E-03    8.7764485E-17
  1.3950000E-03    2.8917218E-16
  1.4299999E-03   -2.7377514E-17
  1.4650000E-03   -3.7365906E-16
  1.5000000E-03   -8.3030358E-17
  1.5350000E-03    4.3145338E-16
  1.5700000E-03    2.4704640E-16
  1.6050000E-03   -4.2876493E-16
  1.6400000E-03   -4.5871450E-16
  1.6749999E-03    3.2278713E-16
  1.7100000E-03    6.9680514E-16
  1.7450000E-03   -7.8693761E-17
  1.7800000E-03   -9.1588201E-16
  1.8150000E-03   -3.4932621E-16
  1.8500000E-03    1.0618424E-15
  1.8850000E-03    1.0028773E-15
  1.9200000E-03   -1.0421057E-15
  1.9550000E-03   -1.8855731E-15
  1.9900000E-03    7.1667611E-16
  2.0250001E-03    2.9226275E-15
  2.0600001E-03   -6.5969908E-18
  2.0949999E-03   -4.0157167E-15
  2.1299999E-03   -1.1653408E-15
  2.1650000E-03    5.0592317E-15
  2.2000000E-03    2.8743853E-15
  2.2350000E-03   -5.8177488E-15
  2.2700001E-03   -5.1016443E-15
  2.3050001E-03    6.0229413E-15
  2.3399999E-03    7.7366499E-15
  2.3749999E-03   -5.3515520E-15
  2.4100000E-03   -1.0468538E-14
  2.4450000E-03    3.6100116E-15
  2.4800000E-03    1.2856623E-14
  2.5150001E-03   -7.3682073E-16
  2.5500001E-03   -1.4526015E-14
  2.5849999E-03   -3.4537048E-15
  2.6199999E-03    1.4760977E-14
  2.6550000E-03    8.9087249E-15
  2.6900000E-03   -1.2721497E-14
  2.7250000E-03   -1.5371073E-14
  2.7600001E-03    7.2234699E-15
  2.7950001E-03    2.1853750E-14
  2.8299999E-03    2.7219719E-15
  2.8649999E-03   -2.6681917E-14
  2.9000000E-03   -1.7494879E-14
  2.9350000E-03    2.7749352E-14
  2.9700000E-03    3.6766895E-14
  3.0050001E-03   -2.2532460E-14
  3.0400001E-03   -5.9189050E-14
  3.0749999E-03    8.3328704E-15
  3.1099999E-03    8.1927405E-14
  3.1450000E-03    1.7432490E-14
  3.1800000E-03   -9.9844693E-14
  3.2150000E-03   -5.5811502E-14
  3.2500001E-03    1.0496271E-13
  3.2850001E-03    1.0340655E-13
  3.3199999E-03   -8.8980222E-14
  3.3549999E-03   -1.5091026E-13
  3.3900000E-03    4.7864087E-14
  3.4250000E-03    1.8594716E-13
  3.4600000E-03    1.6095617E-14
  3.4950001E-03   -1.9723689E-13
  3.5300001E-03   -9.6504327E-14
  3.5649999E-03    1.7521032E-13
  3.5999999E-03    1.8432914E-13
  3.6350000E-03   -1.0926769E-13
  3.6700000E-03   -2.6245491E-13
  3.7050000E-03   -7.1775734E-15
  3.7400001E-03    3.0248986E-13
  3.7750001E-03    1.6412986E-13
  3.8099999E-03   -2.7495966E-13
  3.8449999E-03   -3.2979451E-13
  3.8800000E-03    1.6701854E-13
  3.9149998E-03    4.6346591E-13
  3.9499998E-03    1.3441149E-14
  3.9849998E-03   -5.2966236E-13
  4.0199999E-03   -2.4784414E-13
  4.0549999E-03    4.9592128E-13
  4.0899999E-03    5.0752664E-13
  4.1250000E-03   -3.2730630E-13
  4.1600000E-03   -7.3851152E-13
  4.1950000E-03    2.2667701E-15
  4.2300001E-03    8.5614680E-13
  4.2650001E-03    4.5631321E-13
  4.3000001E-03   -7.6971892E-13
  4.3350002E-03   -9.6517228E-13
  4.3700002E-03    4.2497483E-13
  4.4049998E-03    1.3947702E-12
  4.4399998E-03    1.5702569E-13
  4.4749998E-03   -1.6195656E-12
  4.5099999E-03   -8.8316089E-13
  4.5449999E-03    1.5643459E-12
  4.5799999E-03    1.6315137E-12
  4.6150000E-03   -1.2012862E-12
  4.6500000E-03   -2.2752449E-12
  4.6850001E-03    5.1980252E-13
  4.7200001E-03    2.6348262E-12
  4.7550001E-03    4.1269215E-13
  4.7900002E-03   -2.4932669E-12
  4.8250002E-03   -1.3544006E-12
  4.8600002E-03    1.7641942E-12
  4.8949998E-03    1.9850172E-12
  4.9299998E-03   -5.7608578E-13
  4.9649999E-03   -2.1148458E-12
  4.9999999E-03   -9.1460834E-13
  5.0349999E-03    1.6255964E-12
  5.0700000E-03    2.6046283E-12
  5.1050000E-03   -2.5385586E-13
  5.1400000E-03   -4.1373892E-12
  5.1750001E-03   -2.1564634E-12
  5.2100001E-03    4.8710740E-12
  5.2450001E-03    5.2800264E-12
  5.2800002E-03   -4.3096325E-12
  5.3150002E-03   -8.4389041E-12
  5.3500002E-03    2.3669614E-12
  5.3849998E-03    1.0949288E-11
  5.4199998E-03    8.3444747E-13
  5.4549999E-03   -1.1991531E-11
  5.4899999E-03   -4.6510504E-12
  5.5249999E-03    1.0960284E-11
  5.5600000E-03    7.9673386E-12
  5.5950000E-03   -7.8844674E-12
  5.6300000E-03   -9.6599916E-12
  5.6650001E-03    3.3370333E-12
  5.7000001E-03    8.8362095E-12
  5.7350001E-03    1.7916269E-12
  5.7700002E-03   -4.5662055E-12
  5.8050002E-03   -5.4963820E-12
  5.8400002E-03   -2.8145479E-12
  5.8749998E-03    5.4894648E-12
  5.9099998E-03    1.0848962E-11
  5.9449999E-03   -1.6790377E-12
  5.9799999E-03   -1.7485889E-11
  6.0149999E-03   -4.7256352E-12
  6.0500000E-03    2.2263287E-11
  6.0850000E-03    1.3836278E-11
  6.1200000E-03   -2.3446082E-11
  6.1550001E-03   -2.4786596E-11
  6.1900001E-03    1.8275575E-11
  6.2250001E-03    3.3107801E-11
  6.2600002E-03   -7.7093670E-12
  6.2950002E-03   -3.4916972E-11
  6.3299998E-03   -4.1882860E-12
  6.3649998E-03    3.0439359E-11
  6.3999998E-03    1.6014802E-11
  6.4349999E-03   -1.8233127E-11
  6.4699999E-03   -2.4094792E-11
  6.5049999E-03   -2.1938102E-12
  6.5400000E-03    2.1251792E-11
  6.5750000E-03    2.4238027E-11
  6.6100000E-03   -5.0485453E-12
  6.6450001E-03   -3.8098850E-11
  6.6800001E-03   -1.7377362E-11
  6.7150001E-03    4.3458140E-11
  6.7500002E-03    4.4203700E-11
  6.7850002E-03   -3.6824953E-11
  6.8199998E-03   -7.0546798E-11
  6.8549998E-03    1.3744088E-11
  6.8899998E-03    8.4423385E-11
  6.9249999E-03    2.0750271E-11
  6.9599999E-03   -7.5439495E-11
  6.9949999E-03   -4.7712528E-11
  7.0300000E-03    5.2182269E-11
  7.0650000E-03    6.0831208E-11
  7.1000000E-03   -2.3558985E-11
  7.1350001E-03   -6.1174302E-11
  7.1700001E-03   -6.3706648E-12
  7.2050001E-03    4.9190488E-11
  7.2400002E-03    3.4706397E-11
  7.2750002E-03   -1.9936457E-11
  7.3099998E-03   -4.5628196E-11
  7.3449998E-03   -8.3353905E-12
  7.3799998E-03    4.7336062E-11
  7.4149999E-03    3.1973996E-11
  7.4499999E-03   -4.3831588E-11
  7.4850000E-03   -4.9269939E-11
  7.5200000E-03    3.6933828E-11
  7.5550000E-03    6.5132587E-11
  7.5900001E-03   -1.8380016E-11
  7.6250001E-03   -6.1721996E-11
  7.6600001E-03    1.5526863E-11
  7.6950002E-03    6.0532190E-11
  7.7300002E-03   -1.6748339E-11
  7.7650002E-03   -5.6551441E-11
  7.7999998E-03    2.7235054E-11
  7.8349998E-03    6.6128353E-11
  7.8699999E-03   -1.9311181E-11
  7.9049999E-03   -5.4901066E-11
  7.9399999E-03    3.3091536E-11
  7.9750000E-03    6.2990384E-11
  8.0100000E-03   -3.4059196E-11
  8.0450000E-03   -7.3744760E-11
  8.0800001E-03    2.9897074E-11
  8.1150001E-03    9.5118829E-11
  8.1500001E-03    1.7220374E-11
  8.1850002E-03   -6.2734505E-11
  8.2200002E-03   -3.1833675E-11
  8.2550002E-03    2.6544836E-11
  8.2900003E-03    5.2379392E-11
  8.3250003E-03    4.7993356E-11
  8.3600003E-03   -1.9487644E-11
  8.3950004E-03   -1.0308203E-10
  8.4300004E-03   -8.0460361E-12
  8.4650004E-03    2.0064880E-10
  8.5000005E-03    1.2704077E-10
  8.5349996E-03   -1.9826245E-10
  8.5699996E-03   -2.1406969E-10
  8.6049996E-03    1.4689125E-10
  8.6399997E-03    2.8129954E-10
  8.6749997E-03   -4.5491683E-11
  8.7099997E-03   -2.7398503E-10
  8.7449998E-03   -1.2024866E-11
  8.7799998E-03    3.1015310E-10
  8.8149998E-03    1.6317593E-10
  8.8499999E-03   -1.8357831E-10
  8.8849999E-03   -1.5140843E-10
  8.9199999E-03    1.2690300E-10
  8.9550000E-03    1.4202023E-10
  8.9900000E-03   -2.7520937E-11
  9.0250000E-03   -2.3314151E-11
  9.0600001E-03    5.5041777E-11
  9.0950001E-03    1.6682246E-11
  9.1300001E-03    7.7158106E-12
  9.1650002E-03    7.4903299E-11
  9.2000002E-03    2.6727533E-11
  9.2350002E-03   -1.2144881E-10
  9.2700003E-03   -7.9916386E-11
  9.3050003E-03    1.3886968E-10
  9.3400003E-03    1.9202517E-10
  9.3750004E-03   -2.3047089E-11
  9.4100004E-03   -1.4569349E-10
  9.4450004E-03    8.3449761E-11
  9.4799995E-03    2.5626687E-10
  9.5149996E-03   -1.9315664E-11
  9.5499996E-03   -2.5814520E-10
  9.5849996E-03   -2.8162604E-11
  9.6199997E-03    1.8119113E-10
  9.6549997E-03    2.6273173E-11
  9.6899997E-03   -8.2733570E-11
  9.7249998E-03   -1.0129465E-11
  9.7599998E-03    2.1970111E-11
  9.7949998E-03    9.6571938E-11
  9.8299999E-03    1.0462626E-10
  9.8649999E-03   -1.3343482E-10
  9.8999999E-03   -1.7677845E-10
  9.9350000E-03    9.5396094E-11
  9.9700000E-03    1.1916150E-10
  1.0005000E-02   -1.5474439E-11
  1.0040000E-02    1.3762131E-11
  1.0075000E-02   -1.0856985E-10
  1.0110000E-02   -1.8788963E-10
  1.0145000E-02    1.4477715E-10
  1.0180000E-02    2.1102695E-10
  1.0215000E-02   -1.6995508E-10
  1.0250000E-02   -2.2186229E-10
  1.0285000E-02   -7.1347560E-11
  1.0320000E-02   -6.3982354E-11
  1.0355000E-02    7.6176190E-11
  1.0390000E-02   -1.6853970E-11
  1.0425000E-02   -3.2649020E-10
  1.0460000E-02   -1.1985182E-11
  1.0495000E-02    2.6221267E-10
  1.0530000E-02   -1.6035100E-10
  1.0565000E-02   -1.0135277E-10
  1.0600000E-02    1.3826379E-10
  1.0635000E-02   -5.1740023E-10
  1.0670000E-02   -5.2295462E-10
  1.0705000E-02    4.5227119E-10
  1.0740000E-02    2.9235883E-10
  1.0775000E-02   -4.3206427E-10
  1.0810000E-02   -2.4860600E-10
  1.0845000E-02   -2.4194643E-11
  1.0880000E-02    1.9777609E-10
  1.0915000E-02    3.2969499E-10
  1.0950000E-02   -7.2102918E-10
  1.0985000E-02   -8.9557256E-10
  1.1020000E-02    7.4038459E-10
  1.1055000E-02    4.1429943E-10
  1.1090000E-02   -1.2167767E-09
  1.1125000E-02   -2.0585761E-10
  1.1160000E-02    9.1532359E-10
  1.1195000E-02   -4.1340216E-11
  1.1230000E-02   -9.3550452E-11
  1.1265000E-02    1.3047055E-10
  1.1300000E-02   -6.7291855E-10
  1.1335000E-02   -7.4618610E-13
  1.1370000E-02    5.5255994E-10
  1.1405000E-02   -9.0043017E-10
  1.1440000E-02   -5.5189464E-10
  1.1475000E-02    7.9017509E-10
  1.1510000E-02   -2.6129179E-10
  1.1545000E-02   -2.1552282E-10
  1.1580000E-02    1.1118376E-09
  1.1615000E-02   -4.5005638E-10
  1.1650000E-02   -1.2235896E-09
  1.1685000E-02    9.5861774E-10
  1.1720000E-02    5.8365435E-10
  1.1755000E-02   -1.0144309E-09
  1.1790000E-02    2.2126405E-10
  1.1825000E-02    4.7005333E-10
  1.1860000E-02   -5.7445432E-10
  1.1895000E-02    6.4344680E-10
  1.1930000E-02    9.7102082E-10
  1.1965000E-02   -4.8219473E-10
  1.2000000E-02   -9.5710925E-11
  1.2035000E-02    4.1511215E-11
  1.2070000E-02   -1.1566741E-09
  1.2105000E-02    1.8417689E-12
  1.2140000E-02    1.3723710E-09
  1.2175000E-02   -7.5170939E-11
  1.2210000E-02   -3.9902154E-10
  1.2245000E-02    1.0267035E-09
  1.2280000E-02    5.7891619E-10
  1.2315000E-02   -2.8632716E-10
  1.2350000E-02    2.2415748E-10
  1.2385000E-02   -9.8035788E-11
  1.2420000E-02   -5.3342197E-10
  1.2455000E-02    3.3605335E-10
  1.2490000E-02    4.1667420E-10
  1.2525000E-02   -9.7974011E-11
  1.2560000E-02    8.9182522E-10
  1.2595000E-02    1.0915882E-09
  1.2630000E-02   -9.7793740E-10
  1.2665000E-02   -1.1972497E-09
  1.2700000E-02    1.0679491E-09
  1.2735000E-02    8.7561841E-10
  1.2770000E-02   -9.0402480E-10
  1.2805000E-02   -5.1715292E-11
  1.2840000E-02    8.6233670E-10
  1.2875000E-02   -1.0487437E-10
  1.2910000E-02    4.7751120E-10
  1.2945000E-02    1.2669339E-09
  1.2980000E-02   -5.2101612E-10
  1.3015000E-02   -1.1162511E-09
  1.3050000E-02    4.0016432E-10
  1.3085000E-02    5.4608906E-10
  1.3120000E-02    3.4936745E-10
  1.3155000E-02    3.1393768E-10
  1.3190000E-02   -1.1762540E-09
  1.3225000E-02   -8.8384622E-10
  1.3260000E-02    1.5405368E-09
  1.3295000E-02    9.9357778E-10
  1.3330000E-02   -1.0109540E-09
  1.3365000E-02   -3.5039660E-10
  1.3400000E-02    2.9013322E-10
  1.3435000E-02   -1.3887294E-10
  1.3470000E-02    4.2093135E-10
  1.3505000E-02    4.9754462E-10
  1.3540000E-02    1.8509705E-10
  1.3575000E-02    1.5872331E-10
  1.3610000E-02   -7.5887358E-10
  1.3645000E-02   -5.8118027E-10
  1.3680000E-02    5.5004995E-10
  1.3715000E-02   -6.8591710E-10
  1.3750000E-02   -8.3964463E-10
  1.3785000E-02    1.1957895E-09
  1.3820000E-02   -5.6789469E-11
  1.3855000E-02   -1.1454653E-09
  1.3890000E-02    2.0028672E-09
  1.3925000E-02    7.8080098E-10
  1.3960000E-02   -3.0858245E-09
  1.3995000E-02   -7.6436207E-10
  1.4030000E-02    1.3294225E-09
  1.4065000E-02   -3.3093212E-10
  1.4100000E-02    1.3117937E-09
  1.4135000E-02    1.4185797E-09
  1.4170000E-02   -2.4267364E-09
  1.4205000E-02   -9.6007857E-10
  1.4240000E-02    2.3749678E-09
  1.4275000E-02    2.4439950E-10
  1.4310000E-02   -2.0133017E-09
  1.4345000E-02   -5.4938584E-12
  1.4380000E-02    5.1962873E-10
  1.4415000E-02   -1.0284807E-09
  1.4450000E-02   -1.4270390E-09
  1.4485000E-02   -1.1168647E-09
  1.4520000E-02   -1.2521348E-10
  1.4555000E-02    9.3316022E-10
  1.4590000E-02    3.9717468E-10
  1.4625000E-02    8.1394551E-11
  1.4660000E-02    2.4534233E-10
  1.4695000E-02   -6.1466526E-10
  1.4730000E-02    3.9168402E-10
  1.4765000E-02    1.5073588E-09
  1.4800000E-02   -7.4344059E-10
  1.4835000E-02   -6.0477445E-10
  1.4870000E-02    1.9385502E-09
  1.4905000E-02   -1.6785970E-09
  1.4940000E-02   -1.2836852E-09
  1.4975000E-02    3.6271872E-09
  1.5010000E-02   -1.2208276E-09
  1.5045000E-02   -5.3161302E-09
  1.5080000E-02    2.3415725E-09
  1.5115000E-02    1.8627184E-09
  1.5150000E-02   -4.9311413E-09
  1.5185000E-02    1.7570477E-09
  1.5220000E-02    5.4183587E-09
  1.5255000E-02   -4.8076316E-09
  1.5290000E-02   -4.0384953E-09
  1.5325000E-02    5.5234128E-09
  1.5360000E-02    1.1133751E-09
  1.5395000E-02   -5.0145861E-09
  1.5430000E-02    1.0679349E-09
  1.5465000E-02    3.8808321E-09
  1.5500000E-02   -1.2549439E-09
  1.5535000E-02   -2.1494222E-09
  1.5570000E-02    1.2418900E-09
  1.5605000E-02    8.0282148E-10
  1.5640000E-02   -2.4127671E-09
  1.5675001E-02   -1.7793083E-09
  1.5710000E-02    9.7676944E-10
  1.5745001E-02    1.1222845E-09
  1.5780000E-02   -6.6359598E-11
  1.5814999E-02    2.5962965E-10
  1.5850000E-02   -5.6941191E-10
  1.5884999E-02   -2.4827103E-09
  1.5920000E-02   -2.2659489E-11
  1.5954999E-02    1.1283942E-09
  1.5990000E-02   -1.4123900E-09
  1.6024999E-02    1.3789068E-09
  1.6060000E-02    2.8721583E-09
  1.6094999E-02   -3.0193774E-09
  1.6130000E-02    4.7078858E-11
  1.6164999E-02    5.9644334E-09
  1.6200000E-02   -8.9808899E-10
  1.6235000E-02   -4.7015618E-09
  1.6270000E-02    2.1917208E-09
  1.6305000E-02   -2.5350436E-10
  1.6340001E-02   -6.1219403E-09
  1.6375000E-02    2.3175464E-09
  1.6410001E-02    7.2803905E-09
  1.6445000E-02   -2.7192277E-09
  1.6480001E-02   -5.2178342E-09
  1.6515000E-02    4.2996868E-09
  1.6550001E-02    5.5052309E-09
  1.6585000E-02   -3.0348644E-09
  1.6620001E-02   -3.8989350E-09
  1.6655000E-02    2.6234606E-09
  1.6690001E-02    1.7056877E-09
  1.6725000E-02   -2.8769533E-09
  1.6759999E-02   -8.4700809E-11
  1.6795000E-02    3.1658101E-09
  1.6829999E-02   -1.1601615E-09
  1.6865000E-02   -1.0136153E-09
  1.6899999E-02    3.1850831E-09
  1.6935000E-02    2.1277084E-10
  1.6969999E-02   -8.1652585E-10
  1.7005000E-02    1.1468001E-09
  1.7039999E-02   -1.1851889E-09
  1.7075000E-02   -9.6152608E-10
  1.7109999E-02    3.3435088E-09
  1.7145000E-02    1.6294152E-10
  1.7180000E-02   -2.3984623E-09
  1.7215000E-02    2.0962170E-09
  1.7250000E-02    4.0421201E-11
  1.7285001E-02   -4.2601429E-09
  1.7320000E-02    8.4897017E-10
  1.7355001E-02    1.3319300E-09
  1.7390000E-02   -4.0961781E-09
  1.7425001E-02   -1.5030868E-09
  1.7460000E-02    1.5404787E-10
  1.7495001E-02   -1.5700443E-09
  1.7530000E-02    4.0787356E-09
  1.7565001E-02    4.7274313E-09
  1.7600000E-02   -3.9613148E-09
  1.7635001E-02   -4.4345785E-09
  1.7670000E-02   -9.3975794E-10
  1.7704999E-02   -2.9472695E-09
  1.7740000E-02    8.9663621E-10
  1.7774999E-02    7.3689970E-09
  1.7810000E-02    4.1785140E-09
  1.7844999E-02   -9.9387498E-10
  1.7880000E-02   -2.3400593E-09
  1.7914999E-02   -1.7375005E-09
  1.7950000E-02    6.1566960E-11
  1.7984999E-02   -1.8487114E-09
  1.8020000E-02   -3.3663925E-09
  1.8054999E-02    2.2115627E-09
  1.8090000E-02    1.1595002E-09
  1.8124999E-02   -6.9131332E-09
  1.8160000E-02   -2.0779041E-09
  1.8195000E-02    5.8146168E-09
  1.8230001E-02   -4.8640686E-10
  1.8265000E-02   -3.0177074E-09
  1.8300001E-02    6.1758012E-09
  1.8335000E-02    4.5797219E-09
  1.8370001E-02   -5.8156768E-09
  1.8405000E-02   -2.4672930E-09
  1.8440001E-02    5.4890736E-09
  1.8475000E-02   -2.1569671E-10
  1.8510001E-02   -5.4175899E-09
  1.8545000E-02    3.0544347E-09
  1.8580001E-02    6.3955357E-09
  1.8615000E-02   -1.8472996E-09
  1.8650001E-02   -2.1200104E-09
  1.8685000E-02    4.0615853E-09
  1.8719999E-02    4.5113213E-10
  1.8755000E-02   -2.7054250E-09
  1.8789999E-02    2.4254043E-09
  1.8825000E-02    2.3279350E-09
  1.8859999E-02   -1.9313255E-09
  1.8895000E-02   -2.7661917E-10
  1.8929999E-02   -1.4560019E-09
  1.8965000E-02   -2.1729702E-09
  1.8999999E-02    4.5404493E-09
  1.9035000E-02    4.2431680E-09
  1.9069999E-02   -2.2181685E-09
  1.9105000E-02    2.6026059E-09
  1.9140000E-02    6.1228991E-09
  1.9175000E-02   -3.2661671E-09
  1.9210000E-02   -4.9681721E-09
  1.9245001E-02    3.2044332E-09
  1.9280000E-02    1.0672657E-09
  1.9315001E-02   -4.3701389E-09
  1.9350000E-02    5.1810739E-10
  1.9385001E-02    4.7811866E-09
  1.9420000E-02    3.4600103E-10
  1.9455001E-02   -2.7078066E-09
  1.9490000E-02    1.2812937E-09
  1.9525001E-02    2.8373015E-09
  1.9560000E-02   -1.5964942E-09
  1.9595001E-02   -1.8494527E-09
  1.9630000E-02    3.7581991E-09
  1.9664999E-02    6.3950850E-10
  1.9700000E-02   -5.9916334E-09
  1.9734999E-02   -1.1742490E-09
  1.9770000E-02    4.1146886E-09
  1.9804999E-02   -4.1103951E-10
  1.9840000E-02   -2.2789568E-09
  1.9874999E-02    9.5077735E-10
  1.9910000E-02    1.8719784E-09
  1.9944999E-02    2.1785103E-09
  1.9980000E-02    1.1067518E-09
  2.0014999E-02   -2.2165829E-09
  2.0050000E-02   -1.7331279E-09
  2.0085000E-02    5.6011967E-10
  2.0120000E-02   -6.9264494E-10
  2.0155000E-02   -3.7305187E-10
  2.0190001E-02    1.5888887E-09
  2.0225000E-02    8.5321361E-10
  2.0260001E-02   -5.1064458E-10
  2.0295000E-02   -3.0296303E-09
  2.0330001E-02   -3.0447882E-09
  2.0365000E-02    3.8298662E-09
  2.0400001E-02    4.7611608E-09
  2.0435000E-02   -2.8571843E-09
  2.0470001E-02   -1.8745970E-10
  2.0505000E-02    4.6332049E-09
  2.0540001E-02   -3.3443244E-09
  2.0575000E-02   -3.9834287E-09
  2.0609999E-02    5.8767999E-09
  2.0645000E-02    2.6578313E-09
  2.0679999E-02   -3.4667209E-09
  2.0715000E-02    1.7924432E-09
  2.0749999E-02    2.1558384E-09
  2.0785000E-02   -2.9441110E-09
  2.0819999E-02   -1.1508914E-09
  2.0855000E-02    2.3508541E-11
  2.0889999E-02    7.3136872E-11
  2.0925000E-02    3.3125060E-09
  2.0959999E-02    3.7300360E-10
  2.0995000E-02   -3.9209964E-09
  2.1029999E-02    9.0131125E-10
  2.1065000E-02    2.5245352E-09
  2.1100000E-02   -1.6156494E-09
  2.1135001E-02    1.5366638E-09
  2.1170000E-02    3.3846621E-09
  2.1205001E-02   -3.8590624E-09
  2.1240000E-02   -4.3266839E-09
  2.1275001E-02    3.0637712E-09
  2.1310000E-02    1.2753008E-09
  2.1345001E-02   -5.3762501E-09
  2.1380000E-02    1.4086594E-11
  2.1415001E-02    8.6271053E-09
  2.1450000E-02    2.9936162E-09
  2.1485001E-02   -5.3828613E-09
  2.1520000E-02   -6.3234046E-10
  2.1555001E-02    2.9170930E-09
  2.1590000E-02   -5.3413554E-09
  2.1624999E-02   -4.8331934E-09
  2.1660000E-02    7.1884307E-09
  2.1694999E-02    5.2953593E-09
  2.1730000E-02   -5.3849130E-09
  2.1764999E-02   -1.9693909E-09
  2.1800000E-02    4.3093098E-09
  2.1834999E-02   -1.9734381E-09
  2.1870000E-02   -5.8323000E-09
  2.1904999E-02    1.5805053E-09
  2.1940000E-02    5.3529199E-09
  2.1974999E-02    1.3403730E-09
  2.2010000E-02   -1.2831864E-09
  2.2045000E-02   -2.5283444E-09
  2.2080000E-02   -3.5720091E-09
  2.2115000E-02    2.9973826E-10
  2.2150001E-02    4.6045541E-09
  2.2185000E-02    1.6677750E-09
  2.2220001E-02   -1.4604264E-09
  2.2255000E-02    5.3413635E-10
  2.2290001E-02   -8.1371404E-10
  2.2325000E-02   -3.0873502E-09
  2.2360001E-02    1.4000036E-09
  2.2395000E-02    2.0376638E-09
  2.2430001E-02   -3.3488101E-09
  2.2465000E-02    1.1944701E-09
  2.2500001E-02    7.7134370E-09
  2.2535000E-02   -1.9282980E-09
  2.2569999E-02   -9.3396633E-09
  2.2605000E-02    9.1366725E-10
  2.2639999E-02    5.9957133E-09
  2.2675000E-02   -7.9452706E-10
  2.2709999E-02   -3.6903067E-10
  2.2745000E-02    2.5401838E-09
  2.2779999E-02   -2.0818987E-09
  2.2815000E-02   -1.0747097E-09
  2.2849999E-02    2.6563340E-09
  2.2885000E-02   -3.3944803E-09
  2.2919999E-02   -3.1472751E-09
  2.2955000E-02    6.0797709E-09
  2.2990000E-02    6.9193579E-10
  2.3025000E-02   -8.0365599E-09
  2.3060000E-02    3.7681916E-10
  2.3095001E-02    4.2777559E-09
  2.3130000E-02   -4.1402375E-09
  2.3165001E-02   -1.6378164E-09
  2.3200000E-02    3.5347507E-09
  2.3235001E-02   -2.3368287E-09
  2.3270000E-02    1.5067905E-10
  2.3305001E-02    8.2764640E-09
  2.3340000E-02   -5.9938970E-10
  2.3375001E-02   -8.6564178E-09
  2.3410000E-02    2.6716183E-09
  2.3445001E-02    7.3700552E-09
  2.3480000E-02   -4.7923976E-09
  2.3514999E-02   -6.1834484E-09
  2.3550000E-02    6.0986998E-09
  2.3584999E-02    5.6643970E-09
  2.3620000E-02   -6.0918466E-09
  2.3654999E-02   -4.0033119E-09
  2.3690000E-02    6.1155179E-09
  2.3724999E-02    4.1743889E-10
  2.3760000E-02   -7.6527948E-09
  2.3794999E-02    1.2648662E-09
  2.3830000E-02    4.7738626E-09
  2.3864999E-02   -5.3900346E-09
  2.3900000E-02   -2.5551021E-09
  2.3934999E-02    4.8124038E-09
  2.3970000E-02   -4.7780770E-09
  2.4005000E-02   -6.7450991E-09
  2.4040001E-02    6.5929937E-09
  2.4075000E-02    3.8157735E-09
  2.4110001E-02   -6.0541385E-09
  2.4145000E-02    7.9688472E-10
  2.4180001E-02    2.2871118E-09
  2.4215000E-02   -7.8397280E-09
  2.4250001E-02   -3.4666272E-09
  2.4285000E-02    5.1248947E-09
  2.4320001E-02   -3.4043882E-10
  2.4355000E-02   -1.3678773E-09
  2.4390001E-02    5.4450169E-09
  2.4425000E-02    1.2076177E-09
  2.4460001E-02   -5.1437428E-09
  2.4495000E-02    5.3760097E-11
  2.4529999E-02    3.1078506E-09
  2.4565000E-02   -2.9733891E-09
  2.4599999E-02   -4.1966923E-09
  2.4635000E-02    2.6254494E-09
  2.4669999E-02    4.0072021E-09
  2.4705000E-02   -2.7585787E-09
  2.4739999E-02   -4.1597783E-09
  2.4775000E-02    2.6920055E-09
  2.4809999E-02    4.5875397E-09
  2.4845000E-02   -3.9599360E-10
  2.4879999E-02   -1.7906702E-09
  2.4915000E-02    5.7317484E-12
  2.4950000E-02   -2.7815478E-10
  2.4985000E-02   -3.9475406E-10
  2.5020000E-02    7.8907225E-10
  2.5055001E-02    2.2217215E-09
  2.5090000E-02    3.1400653E-09
  2.5125001E-02    5.9476118E-10
  2.5160000E-02   -3.6031984E-09
  2.5195001E-02   -3.9618793E-09
  2.5230000E-02   -2.7723708E-09
  2.5265001E-02   -2.0289750E-09
  2.5300000E-02    2.1772499E-09
  2.5335001E-02    6.2110996E-09
  2.5370000E-02    3.2722236E-09
  2.5405001E-02   -2.0177584E-09
  2.5440000E-02   -2.2287672E-09
  2.5474999E-02    4.7511384E-10
  2.5510000E-02    5.0582261E-10
  2.5544999E-02   -2.9116577E-11
  2.5580000E-02    3.5818875E-09
  2.5614999E-02    5.1100209E-09
  2.5650000E-02   -1.0585990E-09
  2.5684999E-02   -4.2726072E-09
  2.5720000E-02   -2.6156863E-10
  2.5754999E-02   -1.3144209E-09
  2.5790000E-02   -5.2792588E-09
  2.5824999E-02   -2.8642960E-11
  2.5860000E-02    5.6580882E-09
  2.5895000E-02    1.6587283E-09
  2.5930000E-02   -1.5331660E-09
  2.5965000E-02    2.0414108E-09
  2.6000001E-02    3.4153658E-09
  2.6035000E-02   -1.1626824E-09
  2.6070001E-02   -4.7151838E-09
  2.6105000E-02   -1.8828701E-09
  2.6140001E-02    1.0645426E-09
  2.6175000E-02   -3.1815499E-09
  2.6210001E-02   -4.9187898E-09
  2.6245000E-02    3.9643520E-09
  2.6280001E-02    7.7474258E-09
  2.6315000E-02   -1.9799411E-09
  2.6350001E-02   -6.7665828E-09
  2.6385000E-02   -9.7972290E-11
  2.6419999E-02    1.5375931E-09
  2.6455000E-02   -3.0802751E-09
  2.6489999E-02   -4.3153878E-10
  2.6525000E-02    4.4743480E-09
  2.6559999E-02   -2.4540078E-10
  2.6595000E-02   -4.5590900E-09
  2.6629999E-02    1.5569608E-09
  2.6665000E-02    3.6730790E-09
  2.6699999E-02   -4.7015587E-09
  2.6735000E-02   -5.6003824E-09
  2.6769999E-02    2.7852738E-09
  2.6805000E-02    2.1564350E-09
  2.6839999E-02   -3.7559214E-09
  2.6875000E-02    1.2393947E-09
  2.6910000E-02    8.3420462E-09
  2.6945001E-02    2.0165638E-09
  2.6980000E-02   -7.5930346E-09