 -4.8000002E-03    1.0000000E-24
 -4.7650002E-03    1.0000000E-24
 -4.7300002E-03    1.0000002E-24
 -4.6950001E-03    1.0000002E-24
 -4.6600001E-03    1.0000002E-24
 -4.6250001E-03    1.0000000E-24
 -4.5900000E-03    1.0000000E-24
 -4.5550000E-03    1.0000003E-24
 -4.5200000E-03    1.0000002E-24
 -4.4849999E-03    1.0000000E-24
 -4.4499999E-03    1.0000002E-24
 -4.4149999E-03    1.0000002E-24
 -4.3799998E-03    1.0000000E-24
 -4.3449998E-03    1.0000001E-24
 -4.3100002E-03    1.0000002E-24
 -4.2750002E-03    1.0000002E-24
 -4.2400002E-03    1.0000001E-24
 -4.2050001E-03    1.0000000E-24
 -4.1700001E-03    9.9999982E-25
 -4.1350001E-03    1.0000001E-24
 -4.1000000E-03    1.0000006E-24
 -4.0650000E-03    1.0000004E-24
 -4.0300000E-03    9.9999982E-25
 -3.9949999E-03    9.9999972E-25
 -3.9599999E-03    1.0000002E-24
 -3.9249999E-03    1.0000003E-24
 -3.8900001E-03    1.0000001E-24
 -3.8550000E-03    1.0000001E-24
 -3.8200000E-03    1.0000000E-24
 -3.7849999E-03    1.0000002E-24
 -3.7499999E-03    1.0000001E-24
 -3.7150001E-03    1.0000001E-24
 -3.6800001E-03    1.0000007E-24
 -3.6450000E-03    1.0000005E-24
 -3.6100000E-03    9.9999982E-25
 -3.5750000E-03    9.9999972E-25
 -3.5399999E-03    1.0000009E-24
 -3.5049999E-03    1.0000013E-24
 -3.4700001E-03    9.9999243E-25
 -3.4350001E-03    1.0000076E-24
 -3.4000000E-03    1.0000426E-24
 -3.3650000E-03    9.9985073E-25
 -3.3300000E-03    1.0000042E-24
 -3.2949999E-03    1.0009737E-24
 -3.2599999E-03    9.9817805E-25
 -3.2250001E-03    9.9756589E-25
 -3.1900001E-03    1.0143442E-24
 -3.1550000E-03    9.8932604E-25
 -3.1200000E-03    9.4271649E-25
 -3.0850000E-03    1.1389515E-24
 -3.0499999E-03    1.0785554E-24
 -3.0149999E-03    2.5952841E-25
 -2.9800001E-03    1.5665605E-24
 -2.9450001E-03    3.4306413E-24
 -2.9100000E-03   -3.8450138E-24
 -2.8750000E-03   -3.2143001E-24
 -2.8400000E-03    2.2192117E-23
 -2.8049999E-03   -4.0350168E-24
 -2.7699999E-03   -6.2045191E-23
 -2.7350001E-03    6.8951530E-23
 -2.7000001E-03    1.2573241E-22
 -2.6650000E-03   -2.8323262E-22
 -2.6300000E-03   -9.3193364E-23
 -2.5950000E-03    7.7331931E-22
 -2.5599999E-03   -4.1612827E-22
 -2.5249999E-03   -1.3810063E-21
 -2.4900001E-03    2.1822915E-21
 -2.4550001E-03    8.8635745E-22
 -2.4200000E-03   -5.8248439E-21
 -2.3850000E-03    4.3929292E-21
 -2.3500000E-03    9.5179707E-21
 -2.3149999E-03   -2.1545399E-20
 -2.2799999E-03   -3.6382013E-21
 -2.2450001E-03    5.8925045E-20
 -2.2100001E-03   -3.6974143E-20
 -2.1750000E-03   -1.1671451E-19
 -2.1400000E-03    1.5814831E-19
 -2.1050000E-03    1.6858670E-19
 -2.0699999E-03   -4.1790653E-19
 -2.0349999E-03   -1.4215295E-19
 -2.0000001E-03    8.5277891E-19
 -1.9650001E-03   -7.8050740E-20
 -1.9300000E-03   -1.4195268E-18
 -1.8950000E-03    5.9024977E-19
 -1.8600000E-03    1.9406290E-18
 -1.8250000E-03   -1.3349961E-18
 -1.7900000E-03   -2.1071266E-18
 -1.7550000E-03    1.8995709E-18
 -1.7199999E-03    1.5797276E-18
 -1.6850000E-03   -1.3549691E-18
 -1.6500000E-03   -1.4676085E-19
 -1.6150000E-03   -1.7668603E-18
 -1.5800000E-03   -2.2325278E-18
 -1.5450000E-03    9.3310796E-18
 -1.5100000E-03    5.7525453E-18
 -1.4750001E-03   -2.3434095E-17
 -1.4400000E-03   -1.1617367E-17
 -1.4050000E-03    4.6451962E-17
 -1.3700000E-03    2.3315447E-17
 -1.3350000E-03   -8.1363431E-17
 -1.3000000E-03   -4.7931622E-17
 -1.2650000E-03    1.3190145E-16
 -1.2300001E-03    9.7167934E-17
 -1.1950000E-03   -2.0152297E-16
 -1.1600000E-03   -1.8820860E-16
 -1.1250000E-03    2.9005892E-16
 -1.0900000E-03    3.4497757E-16
 -1.0550000E-03   -3.8747694E-16
 -1.0200000E-03   -5.9984846E-16
 -9.8500005E-04    4.6506572E-16
 -9.5000002E-04    9.9411365E-16
 -9.1499998E-04   -4.6458995E-16
 -8.8000001E-04   -1.5734441E-15
 -8.4499997E-04    2.8490880E-16
 -8.1000000E-04    2.3738435E-15
 -7.7500002E-04    2.3592951E-16
 -7.3999999E-04   -3.3943647E-15
 -7.0500001E-04   -1.3439411E-15
 -6.6999998E-04    4.5524171E-15
 -6.3500000E-04    3.3909329E-15
 -6.0000003E-04   -5.6133784E-15
 -5.6499999E-04   -6.8330923E-15
 -5.3000002E-04    6.0820527E-15
 -4.9499999E-04    1.2170254E-14
 -4.6000001E-04   -5.0496352E-15
 -4.2500001E-04   -1.9787220E-14
 -3.9000000E-04    1.0137678E-15
 -3.5500000E-04    2.9669565E-14
 -3.1999999E-04    8.2715181E-15
 -2.8499999E-04   -4.0973105E-14
 -2.5000001E-04   -2.5809512E-14
 -2.1499999E-04    5.1415489E-14
 -1.8000000E-04    5.5069874E-14
 -1.4500000E-04   -5.6469271E-14
 -1.1000000E-04   -9.9157472E-14
 -7.5000004E-05    4.8465047E-14
 -3.9999999E-05    1.5918979E-13
 -4.9999999E-06   -1.6022921E-14
  2.9999999E-05   -2.3178605E-13
  6.5000000E-05   -5.5403825E-14
  9.9999997E-05    3.0598245E-13
  1.3499999E-04    1.8101568E-13
  1.7000000E-04   -3.6042428E-13
  2.0500000E-04   -3.7184622E-13
  2.3999999E-04    3.6190389E-13
  2.7500000E-04    6.2805696E-13
  3.1000000E-04   -2.6602231E-13
  3.4500001E-04   -9.3079244E-13
  3.8000001E-04    2.0975751E-14
  4.1499999E-04    1.2325062E-12
  4.4999999E-04    4.2255086E-13
  4.8500000E-04   -1.4474550E-12
  5.2000000E-04   -1.0910183E-12
  5.5499998E-04    1.4499390E-12
  5.9000001E-04    1.9583998E-12
  6.2499999E-04   -1.0909959E-12
  6.6000002E-04   -2.9205926E-12
  6.9500000E-04    2.3400406E-13
  7.3000003E-04    3.7895464E-12
  7.6500000E-04    1.2064102E-12
  7.9999998E-04   -4.3038407E-12
  8.3500001E-04   -3.2313527E-12
  8.6999999E-04    4.1390966E-12
  9.0500002E-04    5.7105987E-12
  9.4000000E-04   -2.9331203E-12
  9.7499997E-04   -8.3087677E-12
  1.0100000E-03    3.8153844E-13
  1.0450000E-03    1.0446863E-11
  1.0800000E-03    3.5907295E-12
  1.1150000E-03   -1.1397934E-11
  1.1500000E-03   -8.7025196E-12
  1.1849999E-03    1.0491957E-11
  1.2200000E-03    1.4352413E-11
  1.2550000E-03   -7.2531720E-12
  1.2900000E-03   -1.9725466E-11
  1.3250000E-03    1.4023082E-12
  1.3600000E-03    2.3773107E-11
  1.3950000E-03    7.0581375E-12
  1.4299999E-03   -2.5150883E-11
  1.4650000E-03   -1.7513614E-11
  1.5000000E-03    2.2479211E-11
  1.5350000E-03    2.8488554E-11
  1.5700000E-03   -1.4952399E-11
  1.6050000E-03   -3.7941601E-11
  1.6400000E-03    2.7135427E-12
  1.6749999E-03    4.3891835E-11
  1.7100000E-03    1.3387741E-11
  1.7450000E-03   -4.4636496E-11
  1.7800000E-03   -3.2105346E-11
  1.8150000E-03    3.8471504E-11
  1.8500000E-03    5.1454379E-11
  1.8850000E-03   -2.3786511E-11
  1.9200000E-03   -6.8069987E-11
  1.9550000E-03    8.8165410E-14
  1.9900000E-03    7.7379457E-11
  2.0250001E-03    3.0754239E-11
  2.0600001E-03   -7.4999985E-11
  2.0949999E-03   -6.4259632E-11
  2.1299999E-03    5.8494640E-11
  2.1650000E-03    9.4497903E-11
  2.2000000E-03   -2.8094580E-11
  2.2350000E-03   -1.1562874E-10
  2.2700001E-03   -1.3999421E-11
  2.3050001E-03    1.2211901E-10
  2.3399999E-03    6.3900871E-11
  2.3749999E-03   -1.0806824E-10
  2.4100000E-03   -1.1400504E-10
  2.4450000E-03    6.9220213E-11
  2.4800000E-03    1.5145378E-10
  2.5150001E-03   -8.5988864E-12
  2.5500001E-03   -1.6261809E-10
  2.5849999E-03   -6.0934278E-11
  2.6199999E-03    1.4151476E-10
  2.6550000E-03    1.2276936E-10
  2.6900000E-03   -9.2152348E-11
  2.7250000E-03   -1.6434551E-10
  2.7600001E-03    2.2939744E-11
  2.7950001E-03    1.7685452E-10
  2.8299999E-03    5.5704642E-11
  2.8649999E-03   -1.5204636E-10
  2.9000000E-03   -1.2614265E-10
  2.9350000E-03    8.8276032E-11
  2.9700000E-03    1.6342637E-10
  3.0050001E-03   -1.6090501E-12
  3.0400001E-03   -1.4956002E-10
  3.0749999E-03   -7.5776711E-11
  3.1099999E-03    8.9497652E-11
  3.1450000E-03    1.1439307E-10
  3.1800000E-03   -9.2123973E-12
  3.2150000E-03   -1.0474824E-10
  3.2500001E-03   -6.3104307E-11
  3.2850001E-03    5.4211920E-11
  3.3199999E-03    1.0833465E-10
  3.3549999E-03    2.6191008E-11
  3.3900000E-03   -1.0730996E-10
  3.4250000E-03   -1.1449181E-10
  3.4600000E-03    4.3400408E-11
  3.4950001E-03    1.6328357E-10
  3.5300001E-03    6.1149481E-11
  3.5649999E-03   -1.3667251E-10
  3.5999999E-03   -1.4780233E-10
  3.6350000E-03    5.4967586E-11
  3.6700000E-03    1.8889873E-10
  3.7050000E-03    5.5939191E-11
  3.7400001E-03   -1.7308387E-10
  3.7750001E-03   -1.7879186E-10
  3.8099999E-03    7.3131709E-11
  3.8449999E-03    2.5214297E-10
  3.8800000E-03    8.0266238E-11
  3.9149998E-03   -2.4459995E-10
  3.9499998E-03   -2.5037128E-10
  3.9849998E-03    1.1180080E-10
  4.0199999E-03    2.9714170E-10
  4.0549999E-03   -2.7160676E-11
  4.0899999E-03   -3.8414674E-10
  4.1250000E-03   -1.9256322E-10
  4.1600000E-03    2.6165706E-10
  4.1950000E-03    2.3576477E-10
  4.2300001E-03   -2.7002608E-10
  4.2650001E-03   -4.9962162E-10
  4.3000001E-03   -1.5977147E-10
  4.3350002E-03    1.3689365E-10
  4.3700002E-03   -1.0584792E-10
  4.4049998E-03   -5.1785126E-10
  4.4399998E-03   -5.3499560E-10
  4.4749998E-03   -2.6496469E-10
  4.5099999E-03   -2.3447655E-10
  4.5449999E-03   -6.0067795E-10
  4.5799999E-03   -9.9141428E-10
  4.6150000E-03   -1.0473629E-09
  4.6500000E-03   -9.0337399E-10
  4.6850001E-03   -1.0222372E-09
  4.7200001E-03   -1.5646736E-09
  4.7550001E-03   -2.1198245E-09
  4.7900002E-03   -2.2807896E-09
  4.8250002E-03   -2.3241267E-09
  4.8600002E-03   -2.8500273E-09
  4.8949998E-03   -3.7998973E-09
  4.9299998E-03   -4.5295727E-09
  4.9649999E-03   -4.9358748E-09
  4.9999999E-03   -5.6614224E-09
  5.0349999E-03   -6.9961175E-09
  5.0700000E-03   -8.4377199E-09
  5.1050000E-03   -9.6172990E-09
  5.1400000E-03   -1.0928835E-08
  5.1750001E-03   -1.2869336E-08
  5.2100001E-03   -1.5287846E-08
  5.2450001E-03   -1.7770898E-08
  5.2800002E-03   -2.0407064E-08
  5.3150002E-03   -2.3619009E-08
  5.3500002E-03   -2.7518874E-08
  5.3849998E-03   -3.1915445E-08
  5.4199998E-03   -3.6711302E-08
  5.4549999E-03   -4.2055365E-08
  5.4899999E-03   -4.8302322E-08
  5.5249999E-03   -5.5712228E-08
  5.5600000E-03   -6.4125679E-08
  5.5950000E-03   -7.3353057E-08
  5.6300000E-03   -8.3747238E-08
  5.6650001E-03   -9.5806563E-08
  5.7000001E-03   -1.0951639E-07
  5.7350001E-03   -1.2469738E-07
  5.7700002E-03   -1.4167395E-07
  5.8050002E-03   -1.6103779E-07
  5.8400002E-03   -1.8298418E-07
  5.8749998E-03   -2.0740083E-07
  5.9099998E-03   -2.3452955E-07
  5.9449999E-03   -2.6503375E-07
  5.9799999E-03   -2.9937107E-07
  6.0149999E-03   -3.3760975E-07
  6.0500000E-03   -3.8000655E-07
  6.0850000E-03   -4.2726344E-07
  6.1200000E-03   -4.8001681E-07
  6.1550001E-03   -5.3860441E-07
  6.1900001E-03   -6.0349782E-07
  6.2250001E-03   -6.7535291E-07
  6.2600002E-03   -7.5468853E-07
  6.2950002E-03   -8.4214304E-07
  6.3299998E-03   -9.3864577E-07
  6.3649998E-03   -1.0450146E-06
  6.3999998E-03   -1.1620554E-06
  6.4349999E-03   -1.2907213E-06
  6.4699999E-03   -1.4317329E-06
  6.5049999E-03   -1.5860805E-06
  6.5400000E-03   -1.7553723E-06
  6.5750000E-03   -1.9404818E-06
  6.6100000E-03   -2.1417609E-06
  6.6450001E-03   -2.3609896E-06
  6.6800001E-03   -2.6003074E-06
  6.7150001E-03   -2.8603943E-06
  6.7500002E-03   -3.1421469E-06
  6.7850002E-03   -3.4477107E-06
  6.8199998E-03   -3.7789846E-06
  6.8549998E-03   -4.1373514E-06
  6.8899998E-03   -4.5240554E-06
  6.9249999E-03   -4.9405576E-06
  6.9599999E-03   -5.3895164E-06
  6.9949999E-03   -5.8731739E-06
  7.0300000E-03   -6.3918678E-06
  7.0650000E-03   -6.9474922E-06
  7.1000000E-03   -7.5439566E-06
  7.1350001E-03   -8.1826529E-06
  7.1700001E-03   -8.8640982E-06
  7.2050001E-03   -9.5915775E-06
  7.2400002E-03   -1.0367597E-05
  7.2750002E-03   -1.1192912E-05
  7.3099998E-03   -1.2070241E-05
  7.3449998E-03   -1.3002212E-05
  7.3799998E-03   -1.3989542E-05
  7.4149999E-03   -1.5034413E-05
  7.4499999E-03   -1.6139526E-05
  7.4850000E-03   -1.7306153E-05
  7.5200000E-03   -1.8536672E-05
  7.5550000E-03   -1.9833069E-05
  7.5900001E-03   -2.1195267E-05
  7.6250001E-03   -2.2625412E-05
  7.6600001E-03   -2.4126526E-05
  7.6950002E-03   -2.5698069E-05
  7.7300002E-03   -2.7340357E-05
  7.7650002E-03   -2.9056040E-05
  7.7999998E-03   -3.0845094E-05
  7.8349998E-03   -3.2707216E-05
  7.8699999E-03   -3.4644127E-05
  7.9049999E-03   -3.6655016E-05
  7.9399999E-03   -3.8738664E-05
  7.9750000E-03   -4.0896604E-05
  8.0100000E-03   -4.3127486E-05
  8.0450000E-03   -4.5428031E-05
  8.0800001E-03   -4.7798705E-05
  8.1150001E-03   -5.0238588E-05
  8.1500001E-03   -5.2743173E-05
  8.1850002E-03   -5.5310906E-05
  8.2200002E-03   -5.7940761E-05
  8.2550002E-03   -6.0627601E-05
  8.2900003E-03   -6.3367406E-05
  8.3250003E-03   -6.6158274E-05
  8.3600003E-03   -6.8995891E-05
  8.3950004E-03   -7.1874754E-05
  8.4300004E-03   -7.4789321E-05
  8.4650004E-03   -7.7733850E-05
  8.5000005E-03   -8.0704966E-05
  8.5349996E-03   -8.3697611E-05
  8.5699996E-03   -8.6701191E-05
  8.6049996E-03   -8.9708155E-05
  8.6399997E-03   -9.2716335E-05
  8.6749997E-03   -9.5718337E-05
  8.7099997E-03   -9.8702563E-05
  8.7449998E-03   -1.0166211E-04
  8.7799998E-03   -1.0459121E-04
  8.8149998E-03   -1.0748055E-04
  8.8499999E-03   -1.1032077E-04
  8.8849999E-03   -1.1310351E-04
  8.9199999E-03   -1.1582026E-04
  8.9550000E-03   -1.1846288E-04
  8.9900000E-03   -1.2102219E-04
  9.0250000E-03   -1.2348815E-04
  9.0600001E-03   -1.2585266E-04
  9.0950001E-03   -1.2810774E-04
  9.1300001E-03   -1.3024369E-04
  9.1650002E-03   -1.3225239E-04
  9.2000002E-03   -1.3412700E-04
  9.2350002E-03   -1.3585828E-04
  9.2700003E-03   -1.3743724E-04
  9.3050003E-03   -1.3885790E-04
  9.3400003E-03   -1.4011444E-04
  9.3750004E-03   -1.4119943E-04
  9.4100004E-03   -1.4210615E-04
  9.4450004E-03   -1.4282903E-04
  9.4799995E-03   -1.4336329E-04
  9.5149996E-03   -1.4370485E-04
  9.5499996E-03   -1.4385024E-04
  9.5849996E-03   -1.4379596E-04
  9.6199997E-03   -1.4353903E-04
  9.6549997E-03   -1.4307827E-04
  9.6899997E-03   -1.4241310E-04
  9.7249998E-03   -1.4154267E-04
  9.7599998E-03   -1.4046792E-04
  9.7949998E-03   -1.3919108E-04
  9.8299999E-03   -1.3771295E-04
  9.8649999E-03   -1.3603544E-04
  9.8999999E-03   -1.3416375E-04
  9.9350000E-03   -1.3210309E-04
  9.9700000E-03   -1.2985771E-04
  1.0005000E-02   -1.2743354E-04
  1.0040000E-02   -1.2483708E-04
  1.0075000E-02   -1.2207618E-04
  1.0110000E-02   -1.1916105E-04
  1.0145000E-02   -1.1609975E-04
  1.0180000E-02   -1.1289908E-04
  1.0215000E-02   -1.0957082E-04
  1.0250000E-02   -1.0612706E-04
  1.0285000E-02   -1.0257650E-04
  1.0320000E-02   -9.8931407E-05
  1.0355000E-02   -9.5205687E-05
  1.0390000E-02   -9.1408823E-05
  1.0425000E-02   -8.7552813E-05
  1.0460000E-02   -8.3653555E-05
  1.0495000E-02   -7.9722500E-05
  1.0530000E-02   -7.5770244E-05
  1.0565000E-02   -7.1811221E-05
  1.0600000E-02   -6.7858520E-05
  1.0635000E-02   -6.3924374E-05
  1.0670000E-02   -6.0021943E-05
  1.0705000E-02   -5.6161116E-05
  1.0740000E-02   -5.2352712E-05
  1.0775000E-02   -4.8611917E-05
  1.0810000E-02   -4.4949134E-05
  1.0845000E-02   -4.1370371E-05
  1.0880000E-02   -3.7886330E-05
  1.0915000E-02   -3.4508255E-05
  1.0950000E-02   -3.1243351E-05
  1.0985000E-02   -2.8099485E-05
  1.1020000E-02   -2.5084159E-05
  1.1055000E-02   -2.2201813E-05
  1.1090000E-02   -1.9457450E-05
  1.1125000E-02   -1.6856224E-05
  1.1160000E-02   -1.4400922E-05
  1.1195000E-02   -1.2094210E-05
  1.1230000E-02   -9.9385770E-06
  1.1265000E-02   -7.9341744E-06
  1.1300000E-02   -6.0802822E-06
  1.1335000E-02   -4.3766390E-06
  1.1370000E-02   -2.8221214E-06
  1.1405000E-02   -1.4135910E-06
  1.1440000E-02   -1.4716900E-07
  1.1475000E-02    9.8001692E-07
  1.1510000E-02    1.9722761E-06
  1.1545000E-02    2.8367315E-06
  1.1580000E-02    3.5791800E-06
  1.1615000E-02    4.2048487E-06
  1.1650000E-02    4.7219269E-06
  1.1685000E-02    5.1376087E-06
  1.1720000E-02    5.4580646E-06
  1.1755000E-02    5.6935401E-06
  1.1790000E-02    5.8531950E-06
  1.1825000E-02    5.9422391E-06
  1.1860000E-02    5.9696158E-06
  1.1895000E-02    5.9463391E-06
  1.1930000E-02    5.8802957E-06
  1.1965000E-02    5.7801162E-06
  1.2000000E-02    5.6536533E-06
  1.2035000E-02    5.5064752E-06
  1.2070000E-02    5.3489225E-06
  1.2105000E-02    5.1915008E-06
  1.2140000E-02    5.0377189E-06
  1.2175000E-02    4.8934639E-06
  1.2210000E-02    4.7683843E-06
  1.2245000E-02    4.6666678E-06
  1.2280000E-02    4.5918177E-06
  1.2315000E-02    4.5504248E-06
  1.2350000E-02    4.5460274E-06
  1.2385000E-02    4.5819233E-06
  1.2420000E-02    4.6627410E-06
  1.2455000E-02    4.7885246E-06
  1.2490000E-02    4.9588671E-06
  1.2525000E-02    5.1768116E-06
  1.2560000E-02    5.4433026E-06
  1.2595000E-02    5.7579409E-06
  1.2630000E-02    6.1203568E-06
  1.2665000E-02    6.5268000E-06
  1.2700000E-02    6.9744260E-06
  1.2735000E-02    7.4627505E-06
  1.2770000E-02    7.9875199E-06
  1.2805000E-02    8.5443889E-06
  1.2840000E-02    9.1315660E-06
  1.2875000E-02    9.7429293E-06
  1.2910000E-02    1.0370797E-05
  1.2945000E-02    1.1011587E-05
  1.2980000E-02    1.1660557E-05
  1.3015000E-02    1.2310786E-05
  1.3050000E-02    1.2957097E-05
  1.3085000E-02    1.3594088E-05
  1.3120000E-02    1.4214738E-05
  1.3155000E-02    1.4810850E-05
  1.3190000E-02    1.5374942E-05
  1.3225000E-02    1.5903364E-05
  1.3260000E-02    1.6391794E-05
  1.3295000E-02    1.6830123E-05
  1.3330000E-02    1.7211029E-05
  1.3365000E-02    1.7532413E-05
  1.3400000E-02    1.7786733E-05
  1.3435000E-02    1.7964388E-05
  1.3470000E-02    1.8063240E-05
  1.3505000E-02    1.8081682E-05
  1.3540000E-02    1.8013008E-05
  1.3575000E-02    1.7850614E-05
  1.3610000E-02    1.7590130E-05
  1.3645000E-02    1.7229126E-05
  1.3680000E-02    1.6766189E-05
  1.3715000E-02    1.6196307E-05
  1.3750000E-02    1.5514986E-05
  1.3785000E-02    1.4723917E-05
  1.3820000E-02    1.3822780E-05
  1.3855000E-02    1.2806336E-05
  1.3890000E-02    1.1673597E-05
  1.3925000E-02    1.0426909E-05
  1.3960000E-02    9.0656504E-06
  1.3995000E-02    7.5906501E-06
  1.4030000E-02    6.0055195E-06
  1.4065000E-02    4.3106756E-06
  1.4100000E-02    2.5055731E-06
  1.4135000E-02    5.9692877E-07
  1.4170000E-02   -1.4085488E-06
  1.4205000E-02   -3.5104165E-06
  1.4240000E-02   -5.7078496E-06
  1.4275000E-02   -7.9929641E-06
  1.4310000E-02   -1.0357187E-05
  1.4345000E-02   -1.2795763E-05
  1.4380000E-02   -1.5303111E-05
  1.4415000E-02   -1.7871989E-05
  1.4450000E-02   -2.0493526E-05
  1.4485000E-02   -2.3156968E-05
  1.4520000E-02   -2.5854042E-05
  1.4555000E-02   -2.8577275E-05
  1.4590000E-02   -3.1314812E-05
  1.4625000E-02   -3.4056426E-05
  1.4660000E-02   -3.6794492E-05
  1.4695000E-02   -3.9515016E-05
  1.4730000E-02   -4.2203978E-05
  1.4765000E-02   -4.4852608E-05
  1.4800000E-02   -4.7450165E-05
  1.4835000E-02   -4.9983671E-05
  1.4870000E-02   -5.2441741E-05
  1.4905000E-02   -5.4808141E-05
  1.4940000E-02   -5.7067453E-05
  1.4975000E-02   -5.9212696E-05
  1.5010000E-02   -6.1234110E-05
  1.5045000E-02   -6.3117586E-05
  1.5080000E-02   -6.4853673E-05
  1.5115000E-02   -6.6428576E-05
  1.5150000E-02   -6.7825509E-05
  1.5185000E-02   -6.9039394E-05
  1.5220000E-02   -7.0067275E-05
  1.5255000E-02   -7.0895410E-05
  1.5290000E-02   -7.1511626E-05
  1.5325000E-02   -7.1912094E-05
  1.5360000E-02   -7.2092647E-05
  1.5395000E-02   -7.2048344E-05
  1.5430000E-02   -7.1772338E-05
  1.5465000E-02   -7.1255308E-05
  1.5500000E-02   -7.0500100E-05
  1.5535000E-02   -6.9517053E-05
  1.5570000E-02   -6.8299996E-05
  1.5605000E-02   -6.6838555E-05
  1.5640000E-02   -6.5139779E-05
  1.5675001E-02   -6.3216947E-05
  1.5710000E-02   -6.1072999E-05
  1.5745001E-02   -5.8710808E-05
  1.5780000E-02   -5.6138499E-05
  1.5814999E-02   -5.3360101E-05
  1.5850000E-02   -5.0385665E-05
  1.5884999E-02   -4.7232988E-05
  1.5920000E-02   -4.3910550E-05
  1.5954999E-02   -4.0424795E-05
  1.5990000E-02   -3.6793284E-05
  1.6024999E-02   -3.3032236E-05
  1.6060000E-02   -2.9147877E-05
  1.6094999E-02   -2.5154974E-05
  1.6130000E-02   -2.1073723E-05
  1.6164999E-02   -1.6912942E-05
  1.6200000E-02   -1.2688375E-05
  1.6235000E-02   -8.4254707E-06
  1.6270000E-02   -4.1343592E-06
  1.6305000E-02    1.7845515E-07
  1.6340001E-02    4.4908061E-06
  1.6375000E-02    8.7882763E-06
  1.6410001E-02    1.3063657E-05
  1.6445000E-02    1.7297310E-05
  1.6480001E-02    2.1473475E-05
  1.6515000E-02    2.5587913E-05
  1.6550001E-02    2.9627583E-05
  1.6585000E-02    3.3577282E-05
  1.6620001E-02    3.7429636E-05
  1.6655000E-02    4.1171283E-05
  1.6690001E-02    4.4792730E-05
  1.6725000E-02    4.8295722E-05
  1.6759999E-02    5.1673931E-05
  1.6795000E-02    5.4912391E-05
  1.6829999E-02    5.8005964E-05
  1.6865000E-02    6.0955761E-05
  1.6899999E-02    6.3755397E-05
  1.6935000E-02    6.6400578E-05
  1.6969999E-02    6.8896246E-05
  1.7005000E-02    7.1242197E-05
  1.7039999E-02    7.3430019E-05
  1.7075000E-02    7.5457698E-05
  1.7109999E-02    7.7333178E-05
  1.7145000E-02    7.9060548E-05
  1.7180000E-02    8.0636855E-05
  1.7215000E-02    8.2063067E-05
  1.7250000E-02    8.3345571E-05
  1.7285001E-02    8.4489737E-05
  1.7320000E-02    8.5497340E-05
  1.7355001E-02    8.6368804E-05
  1.7390000E-02    8.7108288E-05
  1.7425001E-02    8.7725748E-05
  1.7460000E-02    8.8230147E-05
  1.7495001E-02    8.8621542E-05
  1.7530000E-02    8.8896137E-05
  1.7565001E-02    8.9061519E-05
  1.7600000E-02    8.9133915E-05
  1.7635001E-02    8.9116766E-05
  1.7670000E-02    8.9006360E-05
  1.7704999E-02    8.8812434E-05
  1.7740000E-02    8.8544715E-05
  1.7774999E-02    8.8198547E-05
  1.7810000E-02    8.7774220E-05
  1.7844999E-02    8.7285945E-05
  1.7880000E-02    8.6744265E-05
  1.7914999E-02    8.6149303E-05
  1.7950000E-02    8.5500273E-05
  1.7984999E-02    8.4799831E-05
  1.8020000E-02    8.4054824E-05
  1.8054999E-02    8.3271909E-05
  1.8090000E-02    8.2452738E-05
  1.8124999E-02    8.1596387E-05
  1.8160000E-02    8.0705075E-05
  1.8195000E-02    7.9784433E-05
  1.8230001E-02    7.8838850E-05
  1.8265000E-02    7.7871096E-05
  1.8300001E-02    7.6882548E-05
  1.8335000E-02    7.5872740E-05
  1.8370001E-02    7.4841882E-05
  1.8405000E-02    7.3795425E-05
  1.8440001E-02    7.2736038E-05
  1.8475000E-02    7.1659510E-05
  1.8510001E-02    7.0566428E-05
  1.8545000E-02    6.9462432E-05
  1.8580001E-02    6.8349291E-05
  1.8615000E-02    6.7226159E-05
  1.8650001E-02    6.6091772E-05
  1.8685000E-02    6.4944470E-05
  1.8719999E-02    6.3788299E-05
  1.8755000E-02    6.2628053E-05
  1.8789999E-02    6.1457926E-05
  1.8825000E-02    6.0273211E-05
  1.8859999E-02    5.9081267E-05
  1.8895000E-02    5.7885263E-05
  1.8929999E-02    5.6680670E-05
  1.8965000E-02    5.5468445E-05
  1.8999999E-02    5.4250271E-05
  1.9035000E-02    5.3022432E-05
  1.9069999E-02    5.1788338E-05
  1.9105000E-02    5.0554881E-05
  1.9140000E-02    4.9316146E-05
  1.9175000E-02    4.8065871E-05
  1.9210000E-02    4.6813853E-05
  1.9245001E-02    4.5565685E-05
  1.9280000E-02    4.4311510E-05
  1.9315001E-02    4.3051572E-05
  1.9350000E-02    4.1797728E-05
  1.9385001E-02    4.0548322E-05
  1.9420000E-02    3.9295279E-05
  1.9455001E-02    3.8042344E-05
  1.9490000E-02    3.6796893E-05
  1.9525001E-02    3.5563484E-05
  1.9560000E-02    3.4342153E-05
  1.9595001E-02    3.3124219E-05
  1.9630000E-02    3.1907988E-05
  1.9664999E-02    3.0706648E-05
  1.9700000E-02    2.9526300E-05
  1.9734999E-02    2.8361630E-05
  1.9770000E-02    2.7211714E-05
  1.9804999E-02    2.6076345E-05
  1.9840000E-02    2.4954757E-05
  1.9874999E-02    2.3858405E-05
  1.9910000E-02    2.2793236E-05
  1.9944999E-02    2.1744136E-05
  1.9980000E-02    2.0707386E-05
  2.0014999E-02    1.9700703E-05
  2.0050000E-02    1.8726369E-05
  2.0085000E-02    1.7774119E-05
  2.0120000E-02    1.6846867E-05
  2.0155000E-02    1.5945718E-05
  2.0190001E-02    1.5064782E-05
  2.0225000E-02    1.4213158E-05
  2.0260001E-02    1.3395854E-05
  2.0295000E-02    1.2598391E-05
  2.0330001E-02    1.1820680E-05
  2.0365000E-02    1.1076210E-05
  2.0400001E-02    1.0359828E-05
  2.0435000E-02    9.6625681E-06
  2.0470001E-02    8.9883933E-06
  2.0505000E-02    8.3371324E-06
  2.0540001E-02    7.7070217E-06
  2.0575000E-02    7.1020263E-06
  2.0609999E-02    6.5196991E-06
  2.0645000E-02    5.9538511E-06
  2.0679999E-02    5.4035841E-06
  2.0715000E-02    4.8702636E-06
  2.0749999E-02    4.3560231E-06
  2.0785000E-02    3.8596490E-06
  2.0819999E-02    3.3758720E-06
  2.0855000E-02    2.9072291E-06
  2.0889999E-02    2.4567516E-06
  2.0925000E-02    2.0177879E-06
  2.0959999E-02    1.5899818E-06
  2.0995000E-02    1.1781264E-06
  2.1029999E-02    7.7830447E-07
  2.1065000E-02    3.8834708E-07
  2.1100000E-02    1.0486461E-08
  2.1135001E-02   -3.5462136E-07
  2.1170000E-02   -7.0102135E-07
  2.1205001E-02   -1.0278919E-06
  2.1240000E-02   -1.3470604E-06
  2.1275001E-02   -1.6597293E-06
  2.1310000E-02   -1.9571016E-06
  2.1345001E-02   -2.2384615E-06
  2.1380000E-02   -2.4993119E-06
  2.1415001E-02   -2.7364079E-06
  2.1450000E-02   -2.9635974E-06
  2.1485001E-02   -3.1821342E-06
  2.1520000E-02   -3.3740921E-06
  2.1555001E-02   -3.5406119E-06
  2.1590000E-02   -3.6939780E-06
  2.1624999E-02   -3.8296444E-06
  2.1660000E-02   -3.9438305E-06
  2.1694999E-02   -4.0406094E-06
  2.1730000E-02   -4.1149906E-06
  2.1764999E-02   -4.1640433E-06
  2.1800000E-02   -4.1967296E-06
  2.1834999E-02   -4.2156566E-06
  2.1870000E-02   -4.2128540E-06
  2.1904999E-02   -4.1865610E-06
  2.1940000E-02   -4.1448584E-06
  2.1974999E-02   -4.0907553E-06
  2.2010000E-02   -4.0169839E-06
  2.2045000E-02   -3.9247561E-06
  2.2080000E-02   -3.8257685E-06
  2.2115000E-02   -3.7191405E-06
  2.2150001E-02   -3.5971464E-06
  2.2185000E-02   -3.4650468E-06
  2.2220001E-02   -3.3297852E-06
  2.2255000E-02   -3.1920338E-06
  2.2290001E-02   -3.0530575E-06
  2.2325000E-02   -2.9082764E-06
  2.2360001E-02   -2.7574008E-06
  2.2395000E-02   -2.6155926E-06
  2.2430001E-02   -2.4878830E-06
  2.2465000E-02   -2.3639159E-06
  2.2500001E-02   -2.2431138E-06
  2.2535000E-02   -2.1285773E-06
  2.2569999E-02   -2.0220346E-06
  2.2605000E-02   -1.9356964E-06
  2.2639999E-02   -1.8713238E-06
  2.2675000E-02   -1.8139926E-06
  2.2709999E-02   -1.7659627E-06
  2.2745000E-02   -1.7395657E-06
  2.2779999E-02   -1.7297507E-06
  2.2815000E-02   -1.7329191E-06
  2.2849999E-02   -1.7573695E-06
  2.2885000E-02   -1.8018707E-06
  2.2919999E-02   -1.8591031E-06
  2.2955000E-02   -1.9316667E-06
  2.2990000E-02   -2.0231960E-06
  2.3025000E-02   -2.1280691E-06
  2.3060000E-02   -2.2435629E-06
  2.3095001E-02   -2.3775938E-06
  2.3130000E-02   -2.5286874E-06
  2.3165001E-02   -2.6822443E-06
  2.3200000E-02   -2.8391171E-06
  2.3235001E-02   -3.0088479E-06
  2.3270000E-02   -3.1820184E-06
  2.3305001E-02   -3.3557228E-06
  2.3340000E-02   -3.5443400E-06
  2.3375001E-02   -3.7386808E-06
  2.3410000E-02   -3.9210904E-06
  2.3445001E-02   -4.1015783E-06
  2.3480000E-02   -4.2850511E-06
  2.3514999E-02   -4.4595176E-06
  2.3550000E-02   -4.6284081E-06
  2.3584999E-02   -4.7955714E-06
  2.3620000E-02   -4.9530586E-06
  2.3654999E-02   -5.1056204E-06
  2.3690000E-02   -5.2574746E-06
  2.3724999E-02   -5.3976023E-06
  2.3760000E-02   -5.5254854E-06
  2.3794999E-02   -5.6463814E-06
  2.3830000E-02   -5.7564157E-06
  2.3864999E-02   -5.8608439E-06
  2.3900000E-02   -5.9665126E-06
  2.3934999E-02   -6.0647199E-06
  2.3970000E-02   -6.1546461E-06
  2.4005000E-02   -6.2470631E-06
  2.4040001E-02   -6.3391794E-06
  2.4075000E-02   -6.4258320E-06
  2.4110001E-02   -6.5145878E-06
  2.4145000E-02   -6.6076486E-06
  2.4180001E-02   -6.7006172E-06
  2.4215000E-02   -6.7999954E-06
  2.4250001E-02   -6.9143339E-06
  2.4285000E-02   -7.0383994E-06
  2.4320001E-02   -7.1638478E-06
  2.4355000E-02   -7.2954140E-06
  2.4390001E-02   -7.4446389E-06
  2.4425000E-02   -7.6132324E-06
  2.4460001E-02   -7.7940367E-06
  2.4495000E-02   -7.9858646E-06
  2.4529999E-02   -8.1949975E-06
  2.4565000E-02   -8.4218746E-06
  2.4599999E-02   -8.6601922E-06
  2.4635000E-02   -8.9106270E-06
  2.4669999E-02   -9.1796219E-06
  2.4705000E-02   -9.4643510E-06
  2.4739999E-02   -9.7565835E-06
  2.4775000E-02   -1.0057795E-05
  2.4809999E-02   -1.0372499E-05
  2.4845000E-02   -1.0696021E-05
  2.4879999E-02   -1.1023387E-05
  2.4915000E-02   -1.1354431E-05
  2.4950000E-02   -1.1683265E-05
  2.4985000E-02   -1.2004406E-05
  2.5020000E-02   -1.2325643E-05
  2.5055001E-02   -1.2650387E-05
  2.5090000E-02   -1.2962872E-05
  2.5125001E-02   -1.3252789E-05
  2.5160000E-02   -1.3527760E-05
  2.5195001E-02   -1.3789829E-05
  2.5230000E-02   -1.4031392E-05
  2.5265001E-02   -1.4250300E-05
  2.5300000E-02   -1.4445373E-05
  2.5335001E-02   -1.4612870E-05
  2.5370000E-02   -1.4751368E-05
  2.5405001E-02   -1.4857143E-05
  2.5440000E-02   -1.4929153E-05
  2.5474999E-02   -1.4972366E-05
  2.5510000E-02   -1.4981718E-05
  2.5544999E-02   -1.4951353E-05
  2.5580000E-02   -1.4891421E-05
  2.5614999E-02   -1.4802666E-05
  2.5650000E-02   -1.4672611E-05
  2.5684999E-02   -1.4508217E-05
  2.5720000E-02   -1.4321150E-05
  2.5754999E-02   -1.4102986E-05
  2.5790000E-02   -1.3849703E-05
  2.5824999E-02   -1.3569566E-05
  2.5860000E-02   -1.3265411E-05
  2.5895000E-02   -1.2940634E-05
  2.5930000E-02   -1.2600926E-05
  2.5965000E-02   -1.2245626E-05
  2.6000001E-02   -1.1874766E-05
  2.6035000E-02   -1.1489738E-05
  2.6070001E-02   -1.1092136E-05
  2.6105000E-02   -1.0691187E-05
  2.6140001E-02   -1.0292241E-05
  2.6175000E-02   -9.8916989E-06
  2.6210001E-02   -9.4936277E-06
  2.6245000E-02   -9.1025395E-06
  2.6280001E-02   -8.7145481E-06
  2.6315000E-02   -8.3347368E-06
  2.6350001E-02   -7.9716046E-06
  2.6385000E-02   -7.6216802E-06
  2.6419999E-02   -7.2847351E-06
  2.6455000E-02   -6.9679072E-06
  2.6489999E-02   -6.6714906E-06
  2.6525000E-02   -6.3914854E-06
  2.6559999E-02   -6.1252235E-06
  2.6595000E-02   -5.8747223E-06
  2.6629999E-02   -5.6491976E-06
  2.6665000E-02   -5.4503262E-06
  2.6699999E-02   -5.2696905E-06
  2.6735000E-02   -5.1058528E-06
  2.6769999E-02   -4.9595747E-06
  2.6805000E-02   -4.8283619E-06
  2.6839999E-02   -4.7173367E-06
  2.6875000E-02   -4.6283853E-06
  2.6910000E-02   -4.5525685E-06
  2.6945001E-02   -4.4889875E-06
  2.6980000E-02   -4.4417147E-06