 -4.8000002E-03    1.0000000E-24
 -4.7650002E-03    1.0000002E-24
 -4.7300002E-03    1.0000001E-24
 -4.6950001E-03    1.0000000E-24
 -4.6600001E-03    1.0000002E-24
 -4.6250001E-03    1.0000002E-24
 -4.5900000E-03    1.0000003E-24
 -4.5550000E-03    1.0000001E-24
 -4.5200000E-03    9.9999992E-25
 -4.4849999E-03    1.0000003E-24
 -4.4499999E-03    1.0000002E-24
 -4.4149999E-03    9.9999982E-25
 -4.3799998E-03    1.0000000E-24
 -4.3449998E-03    1.0000006E-24
 -4.3100002E-03    1.0000005E-24
 -4.2750002E-03    1.0000001E-24
 -4.2400002E-03    9.9999992E-25
 -4.2050001E-03    1.0000001E-24
 -4.1700001E-03    1.0000001E-24
 -4.1350001E-03    9.9999992E-25
 -4.1000000E-03    1.0000000E-24
 -4.0650000E-03    1.0000001E-24
 -4.0300000E-03    1.0000001E-24
 -3.9949999E-03    9.9999992E-25
 -3.9599999E-03    9.9999982E-25
 -3.9249999E-03    9.9999992E-25
 -3.8900001E-03    1.0000002E-24
 -3.8550000E-03    1.0000003E-24
 -3.8200000E-03    1.0000003E-24
 -3.7849999E-03    1.0000004E-24
 -3.7499999E-03    1.0000000E-24
 -3.7150001E-03    1.0000001E-24
 -3.6800001E-03    1.0000004E-24
 -3.6450000E-03    1.0000004E-24
 -3.6100000E-03    9.9999943E-25
 -3.5750000E-03    9.9999785E-25
 -3.5399999E-03    1.0000092E-24
 -3.5049999E-03    1.0000015E-24
 -3.4700001E-03    9.9991433E-25
 -3.4350001E-03    1.0001711E-24
 -3.4000000E-03    1.0003151E-24
 -3.3650000E-03    9.9818899E-25
 -3.3300000E-03    1.0011895E-24
 -3.2949999E-03    1.0091638E-24
 -3.2599999E-03    9.7800362E-25
 -3.2250001E-03    9.8396948E-25
 -3.1900001E-03    1.1396120E-24
 -3.1550000E-03    8.7903796E-25
 -3.1200000E-03    4.9920089E-25
 -3.0850000E-03    2.2143034E-24
 -3.0499999E-03    1.6617607E-24
 -3.0149999E-03   -4.8981963E-24
 -2.9800001E-03    5.1573407E-24
 -2.9450001E-03    1.9165018E-23
 -2.9100000E-03   -3.3775020E-23
 -2.8750000E-03   -2.7934477E-23
 -2.8400000E-03    1.4877010E-22
 -2.8049999E-03   -4.6021612E-23
 -2.7699999E-03   -4.2443105E-22
 -2.7350001E-03    5.3476934E-22
 -2.7000001E-03    7.8636922E-22
 -2.6650000E-03   -2.2274195E-21
 -2.6300000E-03   -2.7252769E-22
 -2.5950000E-03    6.3088480E-21
 -2.5599999E-03   -4.5393931E-21
 -2.5249999E-03   -1.2655375E-20
 -2.4900001E-03    2.1711216E-20
 -2.4550001E-03    1.4307383E-20
 -2.4200000E-03   -6.3755605E-20
 -2.3850000E-03    1.4052873E-20
 -2.3500000E-03    1.3780903E-19
 -2.3149999E-03   -1.3083145E-19
 -2.2799999E-03   -2.1456966E-19
 -2.2450001E-03    4.3077434E-19
 -2.2100001E-03    1.6841976E-19
 -2.1750000E-03   -1.0042659E-18
 -2.1400000E-03    2.9730151E-19
 -2.1050000E-03    1.8109169E-18
 -2.0699999E-03   -1.6824397E-18
 -2.0349999E-03   -2.4484385E-18
 -2.0000001E-03    4.5765215E-18
 -1.9650001E-03    1.8730845E-18
 -1.9300000E-03   -9.2955100E-18
 -1.8950000E-03    1.7627653E-18
 -1.8600000E-03    1.5262842E-17
 -1.8250000E-03   -1.0923945E-17
 -1.7900000E-03   -2.0324736E-17
 -1.7550000E-03    2.8013808E-17
 -1.7199999E-03    2.0370365E-17
 -1.6850000E-03   -5.4348158E-17
 -1.6500000E-03   -9.5869943E-18
 -1.6150000E-03    8.9271701E-17
 -1.5800000E-03   -1.8713132E-17
 -1.5450000E-03   -1.2997402E-16
 -1.5100000E-03    7.1336089E-17
 -1.4750001E-03    1.7205183E-16
 -1.4400000E-03   -1.5540519E-16
 -1.4050000E-03   -2.0990918E-16
 -1.3700000E-03    2.7979756E-16
 -1.3350000E-03    2.3547746E-16
 -1.3000000E-03   -4.5673816E-16
 -1.2650000E-03   -2.3446960E-16
 -1.2300001E-03    7.0135419E-16
 -1.1950000E-03    1.8149973E-16
 -1.1600000E-03   -1.0274922E-15
 -1.1250000E-03   -3.7109384E-17
 -1.0900000E-03    1.4407511E-15
 -1.0550000E-03   -2.5146976E-16
 -1.0200000E-03   -1.9328648E-15
 -9.8500005E-04    7.4829940E-16
 -9.5000002E-04    2.4814336E-15
 -9.1499998E-04   -1.5317115E-15
 -8.8000001E-04   -3.0524562E-15
 -8.4499997E-04    2.7075957E-15
 -8.1000000E-04    3.5943102E-15
 -7.7500002E-04   -4.4324281E-15
 -7.3999999E-04   -4.0140358E-15
 -7.0500001E-04    6.9373112E-15
 -6.6999998E-04    4.1482223E-15
 -6.3500000E-04   -1.0537257E-14
 -6.0000003E-04   -3.7638875E-15
 -5.6499999E-04    1.5613760E-14
 -5.3000002E-04    2.6157663E-15
 -4.9499999E-04   -2.2585287E-14
 -4.6000001E-04   -5.4271746E-16
 -4.2500001E-04    3.1910950E-14
 -3.9000000E-04   -2.4465935E-15
 -3.5500000E-04   -4.4143576E-14
 -3.1999999E-04    6.1390496E-15
 -2.8499999E-04    5.9934533E-14
 -2.5000001E-04   -1.0153096E-14
 -2.1499999E-04   -7.9806685E-14
 -1.8000000E-04    1.4071809E-14
 -1.4500000E-04    1.0362468E-13
 -1.1000000E-04   -1.7718494E-14
 -7.5000004E-05   -1.3002174E-13
 -3.9999999E-05    2.1587070E-14
 -4.9999999E-06    1.5632813E-13
  2.9999999E-05   -2.7291083E-14
  6.5000000E-05   -1.7932253E-13
  9.9999997E-05    3.7792404E-14
  1.3499999E-04    1.9624065E-13
  1.7000000E-04   -5.7676798E-14
  2.0500000E-04   -2.0513013E-13
  2.3999999E-04    9.4515460E-14
  2.7500000E-04    2.0548507E-13
  3.1000000E-04   -1.6076185E-13
  3.4500001E-04   -2.0167157E-13
  3.8000001E-04    2.7142186E-13
  4.1499999E-04    2.0702088E-13
  4.4999999E-04   -4.3466362E-13
  4.8500000E-04   -2.4024820E-13
  5.2000000E-04    6.4563204E-13
  5.5499998E-04    3.1554105E-13
  5.9000001E-04   -8.9582936E-13
  6.2499999E-04   -4.4573365E-13
  6.6000002E-04    1.1809051E-12
  6.9500000E-04    6.5871419E-13
  7.3000003E-04   -1.4771739E-12
  7.6500000E-04   -9.8065783E-13
  7.9999998E-04    1.7206781E-12
  8.3500001E-04    1.3771102E-12
  8.6999999E-04   -1.8603205E-12
  9.0500002E-04   -1.7568955E-12
  9.4000000E-04    1.9238740E-12
  9.7499997E-04    2.0820253E-12
  1.0100000E-03   -1.9411124E-12
  1.0450000E-03   -2.3786158E-12
  1.0800000E-03    1.8366946E-12
  1.1150000E-03    2.5463236E-12
  1.1500000E-03   -1.6099283E-12
  1.1849999E-03   -2.3652174E-12
  1.2200000E-03    1.5754290E-12
  1.2550000E-03    1.9034203E-12
  1.2900000E-03   -2.0187599E-12
  1.3250000E-03   -1.5415446E-12
  1.3600000E-03    2.6961981E-12
  1.3950000E-03    1.2288449E-12
  1.4299999E-03   -3.4199369E-12
  1.4650000E-03   -4.7383695E-13
  1.5000000E-03    4.9094999E-12
  1.5350000E-03   -2.6875149E-13
  1.5700000E-03   -7.6612718E-12
  1.6050000E-03   -3.6116162E-13
  1.6400000E-03    1.0473413E-11
  1.6749999E-03    2.1360106E-12
  1.7100000E-03   -1.2539469E-11
  1.7450000E-03   -3.4701905E-12
  1.7800000E-03    1.5783166E-11
  1.8150000E-03    5.7109812E-12
  1.8500000E-03   -2.0834473E-11
  1.8850000E-03   -1.2231865E-11
  1.9200000E-03    2.3263771E-11
  1.9550000E-03    2.1042782E-11
  1.9900000E-03   -2.0763993E-11
  2.0250001E-03   -2.6902728E-11
  2.0600001E-03    1.8678037E-11
  2.0949999E-03    3.2872226E-11
  2.1299999E-03   -1.7784132E-11
  2.1650000E-03   -4.4743532E-11
  2.2000000E-03    7.7913960E-12
  2.2350000E-03    5.3125945E-11
  2.2700001E-03    1.1214839E-11
  2.3050001E-03   -4.5928417E-11
  2.3399999E-03   -2.1774518E-11
  2.3749999E-03    3.5211216E-11
  2.4100000E-03    2.3858499E-11
  2.4450000E-03   -3.2919049E-11
  2.4800000E-03   -3.7759212E-11
  2.5150001E-03    1.5451080E-11
  2.5500001E-03    4.8415810E-11
  2.5849999E-03    2.7803712E-11
  2.6199999E-03   -1.5364088E-11
  2.6550000E-03   -4.7991288E-11
  2.6900000E-03   -3.8079071E-11
  2.7250000E-03    2.3379930E-11
  2.7600001E-03    5.5579579E-11
  2.7950001E-03   -1.4866497E-11
  2.8299999E-03   -7.5379258E-11
  2.8649999E-03    2.5761020E-11
  2.9000000E-03    1.5544918E-10
  2.9350000E-03    4.5922710E-11
  2.9700000E-03   -2.0154191E-10
  3.0050001E-03   -1.8308363E-10
  3.0400001E-03    1.2146074E-10
  3.0749999E-03    2.2668716E-10
  3.1099999E-03   -4.7612726E-11
  3.1450000E-03   -2.0674210E-10
  3.1800000E-03    6.9941636E-11
  3.2150000E-03    3.0263517E-10
  3.2500001E-03    1.2763127E-11
  3.2850001E-03   -3.9235418E-10
  3.3199999E-03   -2.5460231E-10
  3.3549999E-03    2.2649856E-10
  3.3900000E-03    3.2341241E-10
  3.4250000E-03   -1.9577281E-11
  3.4600000E-03   -1.6863683E-10
  3.4950001E-03    7.5446698E-11
  3.5300001E-03    1.9733117E-10
  3.5649999E-03   -8.2833664E-11
  3.5999999E-03   -3.5663053E-10
  3.6350000E-03   -2.2536126E-10
  3.6700000E-03    1.4032374E-10
  3.7050000E-03    3.3648789E-10
  3.7400001E-03    2.3339061E-10
  3.7750001E-03   -3.2695923E-12
  3.8099999E-03   -1.5332599E-10
  3.8449999E-03   -1.0927881E-10
  3.8800000E-03    3.6925606E-12
  3.9149998E-03   -9.2464723E-11
  3.9499998E-03   -3.4008901E-10
  3.9849998E-03   -2.0130904E-10
  4.0199999E-03    4.4931930E-10
  4.0549999E-03    7.7584500E-10
  4.0899999E-03    1.7022000E-10
  4.1250000E-03   -5.9702610E-10
  4.1600000E-03   -4.7149318E-10
  4.1950000E-03    1.6411766E-10
  4.2300001E-03    1.1536733E-10
  4.2650001E-03   -5.1083082E-10
  4.3000001E-03   -3.5278050E-10
  4.3350002E-03    7.3816880E-10
  4.3700002E-03    1.1007631E-09
  4.4049998E-03    2.2493148E-11
  4.4399998E-03   -9.0589442E-10
  4.4749998E-03   -4.4385182E-10
  4.5099999E-03    3.0697850E-10
  4.5449999E-03   -1.1465028E-11
  4.5799999E-03   -6.8873507E-10
  4.6150000E-03   -2.8265937E-10
  4.6500000E-03    8.5958568E-10
  4.6850001E-03    1.1247295E-09
  4.7200001E-03    2.1338371E-10
  4.7550001E-03   -5.9436034E-10
  4.7900002E-03   -6.1886296E-10
  4.8250002E-03   -3.8202497E-10
  4.8600002E-03   -2.2451198E-10
  4.8949998E-03   -2.0777607E-11
  4.9299998E-03    1.6460018E-10
  4.9649999E-03    3.1046962E-10
  4.9999999E-03    5.9087912E-10
  5.0349999E-03    7.3403073E-10
  5.0700000E-03    1.6035678E-10
  5.1050000E-03   -8.5560214E-10
  5.1400000E-03   -1.0564103E-09
  5.1750001E-03   -3.9075736E-11
  5.2100001E-03    6.7472194E-10
  5.2450001E-03    1.1574641E-11
  5.2800002E-03   -5.2516835E-10
  5.3150002E-03    4.8061188E-10
  5.3500002E-03    1.5363230E-09
  5.3849998E-03    8.0561474E-10
  5.4199998E-03   -7.3540635E-10
  5.4549999E-03   -9.7096053E-10
  5.4899999E-03    1.2187110E-10
  5.5249999E-03    5.6063854E-10
  5.5600000E-03   -3.1641470E-10
  5.5950000E-03   -4.6973897E-10
  5.6300000E-03    9.7504016E-10
  5.6650001E-03    1.7092163E-09
  5.7000001E-03    8.1425194E-10
  5.7350001E-03    2.8231834E-10
  5.7700002E-03    5.7388505E-10
  5.8050002E-03    5.1960669E-10
  5.8400002E-03    2.7445998E-10
  5.8749998E-03    2.7602690E-10
  5.9099998E-03    6.5081757E-10
  5.9449999E-03    1.6262058E-09
  5.9799999E-03    2.1929516E-09
  6.0149999E-03    2.1113826E-09
  6.0500000E-03    2.9080449E-09
  6.0850000E-03    3.3695353E-09
  6.1200000E-03    2.0278581E-09
  6.1550001E-03    2.0375426E-09
  6.1900001E-03    3.9531844E-09
  6.2250001E-03    3.9772159E-09
  6.2600002E-03    3.4453467E-09
  6.2950002E-03    5.0925286E-09
  6.3299998E-03    6.4264083E-09
  6.3649998E-03    7.2577966E-09
  6.3999998E-03    9.1089873E-09
  6.4349999E-03    9.6280859E-09
  6.4699999E-03    9.9202717E-09
  6.5049999E-03    1.2139042E-08
  6.5400000E-03    1.2149260E-08
  6.5750000E-03    1.1341926E-08
  6.6100000E-03    1.5217170E-08
  6.6450001E-03    1.8406768E-08
  6.6800001E-03    1.8452562E-08
  6.7150001E-03    2.2495724E-08
  6.7500002E-03    2.6783550E-08
  6.7850002E-03    2.6191051E-08
  6.8199998E-03    2.8586566E-08
  6.8549998E-03    3.2864492E-08
  6.8899998E-03    3.2423948E-08
  6.9249999E-03    3.4835313E-08
  6.9599999E-03    4.0671523E-08
  6.9949999E-03    4.2356859E-08
  7.0300000E-03    4.7612030E-08
  7.0650000E-03    5.6749471E-08
  7.1000000E-03    5.7519447E-08
  7.1350001E-03    5.8708441E-08
  7.1700001E-03    6.7382274E-08
  7.2050001E-03    6.9622608E-08
  7.2400002E-03    7.0429927E-08
  7.2750002E-03    8.0112528E-08
  7.3099998E-03    8.4042760E-08
  7.3449998E-03    8.4444537E-08
  7.3799998E-03    9.6179342E-08
  7.4149999E-03    1.0398691E-07
  7.4499999E-03    1.0288665E-07
  7.4850000E-03    1.1050236E-07
  7.5200000E-03    1.1725486E-07
  7.5550000E-03    1.1615147E-07
  7.5900001E-03    1.2460862E-07
  7.6250001E-03    1.3309811E-07
  7.6600001E-03    1.3107525E-07
  7.6950002E-03    1.3939810E-07
  7.7300002E-03    1.5156191E-07
  7.7650002E-03    1.4979787E-07
  7.7999998E-03    1.5480707E-07
  7.8349998E-03    1.6736844E-07
  7.8699999E-03    1.6618800E-07
  7.9049999E-03    1.6850103E-07
  7.9399999E-03    1.8041607E-07
  7.9750000E-03    1.7966173E-07
  8.0100000E-03    1.8128425E-07
  8.0450000E-03    1.9622438E-07
  8.0800001E-03    1.9946087E-07
  8.1150001E-03    2.0045223E-07
  8.1500001E-03    2.1521684E-07
  8.1850002E-03    2.2046240E-07
  8.2200002E-03    2.2215873E-07
  8.2550002E-03    2.4042606E-07
  8.2900003E-03    2.5144075E-07
  8.3250003E-03    2.5407005E-07
  8.3600003E-03    2.7380042E-07
  8.3950004E-03    2.9324318E-07
  8.4300004E-03    3.0380286E-07
  8.4650004E-03    3.2763049E-07
  8.5000005E-03    3.5230707E-07
  8.5349996E-03    3.6874195E-07
  8.5699996E-03    3.9795125E-07
  8.6049996E-03    4.2888175E-07
  8.6399997E-03    4.5125233E-07
  8.6749997E-03    4.8777218E-07
  8.7099997E-03    5.2869336E-07
  8.7449998E-03    5.5871749E-07
  8.7799998E-03    6.0160909E-07
  8.8149998E-03    6.5276339E-07
  8.8499999E-03    6.9208789E-07
  8.8849999E-03    7.4061921E-07
  8.9199999E-03    7.9927594E-07
  8.9550000E-03    8.4573719E-07
  8.9900000E-03    8.9672477E-07
  9.0250000E-03    9.5726273E-07
  9.0600001E-03    1.0045559E-06
  9.0950001E-03    1.0519944E-06
  9.1300001E-03    1.1091830E-06
  9.1650002E-03    1.1535002E-06
  9.2000002E-03    1.1926597E-06
  9.2350002E-03    1.2392610E-06
  9.2700003E-03    1.2733004E-06
  9.3050003E-03    1.2966373E-06
  9.3400003E-03    1.3206088E-06
  9.3750004E-03    1.3290262E-06
  9.4100004E-03    1.3242900E-06
  9.4450004E-03    1.3177039E-06
  9.4799995E-03    1.2921034E-06
  9.5149996E-03    1.2483765E-06
  9.5499996E-03    1.1996461E-06
  9.5849996E-03    1.1265081E-06
  9.6199997E-03    1.0261595E-06
  9.6549997E-03    9.1899790E-07
  9.6899997E-03    7.8901871E-07
  9.7249998E-03    6.2351774E-07
  9.7599998E-03    4.4395551E-07
  9.7949998E-03    2.4341546E-07
  9.8299999E-03    1.3309797E-09
  9.8649999E-03   -2.6717922E-07
  9.8999999E-03   -5.5720005E-07
  9.9350000E-03   -8.8626427E-07
  9.9700000E-03   -1.2481372E-06
  1.0005000E-02   -1.6359160E-06
  1.0040000E-02   -2.0643765E-06
  1.0075000E-02   -2.5328545E-06
  1.0110000E-02   -3.0312381E-06
  1.0145000E-02   -3.5678415E-06
  1.0180000E-02   -4.1483804E-06
  1.0215000E-02   -4.7694880E-06
  1.0250000E-02   -5.4357674E-06
  1.0285000E-02   -6.1471028E-06
  1.0320000E-02   -6.8985391E-06
  1.0355000E-02   -7.7007435E-06
  1.0390000E-02   -8.5613437E-06
  1.0425000E-02   -9.4718507E-06
  1.0460000E-02   -1.0438534E-05
  1.0495000E-02   -1.1475862E-05
  1.0530000E-02   -1.2575294E-05
  1.0565000E-02   -1.3735331E-05
  1.0600000E-02   -1.4978800E-05
  1.0635000E-02   -1.6307729E-05
  1.0670000E-02   -1.7713139E-05
  1.0705000E-02   -1.9216373E-05
  1.0740000E-02   -2.0829866E-05
  1.0775000E-02   -2.2541311E-05
  1.0810000E-02   -2.4366826E-05
  1.0845000E-02   -2.6329295E-05
  1.0880000E-02   -2.8420880E-05
  1.0915000E-02   -3.0653482E-05
  1.0950000E-02   -3.3055341E-05
  1.0985000E-02   -3.5622154E-05
  1.1020000E-02   -3.8364480E-05
  1.1055000E-02   -4.1319112E-05
  1.1090000E-02   -4.4483462E-05
  1.1125000E-02   -4.7855188E-05
  1.1160000E-02   -5.1472838E-05
  1.1195000E-02   -5.5345063E-05
  1.1230000E-02   -5.9465194E-05
  1.1265000E-02   -6.3869753E-05
  1.1300000E-02   -6.8576272E-05
  1.1335000E-02   -7.3575626E-05
  1.1370000E-02   -7.8897931E-05
  1.1405000E-02   -8.4562445E-05
  1.1440000E-02   -9.0555943E-05
  1.1475000E-02   -9.6905263E-05
  1.1510000E-02   -1.0363656E-04
  1.1545000E-02   -1.1073199E-04
  1.1580000E-02   -1.1820219E-04
  1.1615000E-02   -1.2606813E-04
  1.1650000E-02   -1.3431103E-04
  1.1685000E-02   -1.4293553E-04
  1.1720000E-02   -1.5195651E-04
  1.1755000E-02   -1.6134266E-04
  1.1790000E-02   -1.7108508E-04
  1.1825000E-02   -1.8119488E-04
  1.1860000E-02   -1.9162889E-04
  1.1895000E-02   -2.0235700E-04
  1.1930000E-02   -2.1338432E-04
  1.1965000E-02   -2.2466127E-04
  1.2000000E-02   -2.3613022E-04
  1.2035000E-02   -2.4777299E-04
  1.2070000E-02   -2.5952686E-04
  1.2105000E-02   -2.7131039E-04
  1.2140000E-02   -2.8308225E-04
  1.2175000E-02   -2.9476290E-04
  1.2210000E-02   -3.0623964E-04
  1.2245000E-02   -3.1743757E-04
  1.2280000E-02   -3.2825692E-04
  1.2315000E-02   -3.3855802E-04
  1.2350000E-02   -3.4823036E-04
  1.2385000E-02   -3.5714824E-04
  1.2420000E-02   -3.6514105E-04
  1.2455000E-02   -3.7205330E-04
  1.2490000E-02   -3.7772182E-04
  1.2525000E-02   -3.8194848E-04
  1.2560000E-02   -3.8454321E-04
  1.2595000E-02   -3.8530322E-04
  1.2630000E-02   -3.8399544E-04
  1.2665000E-02   -3.8039539E-04
  1.2700000E-02   -3.7426277E-04
  1.2735000E-02   -3.6532740E-04
  1.2770000E-02   -3.5333523E-04
  1.2805000E-02   -3.3802204E-04
  1.2840000E-02   -3.1908846E-04
  1.2875000E-02   -2.9624827E-04
  1.2910000E-02   -2.6921593E-04
  1.2945000E-02   -2.3767898E-04
  1.2980000E-02   -2.0133746E-04
  1.3015000E-02   -1.5989883E-04
  1.3050000E-02   -1.1305244E-04
  1.3085000E-02   -6.0503025E-05
  1.3120000E-02   -1.9710460E-06
  1.3155000E-02    6.2828913E-05
  1.3190000E-02    1.3416410E-04
  1.3225000E-02    2.1227960E-04
  1.3260000E-02    2.9740727E-04
  1.3295000E-02    3.8974910E-04
  1.3330000E-02    4.8948359E-04
  1.3365000E-02    5.9676392E-04
  1.3400000E-02    7.1169465E-04
  1.3435000E-02    8.3434623E-04
  1.3470000E-02    9.6475391E-04
  1.3505000E-02    1.1028905E-03
  1.3540000E-02    1.2486875E-03
  1.3575000E-02    1.4020263E-03
  1.3610000E-02    1.5627090E-03
  1.3645000E-02    1.7304848E-03
  1.3680000E-02    1.9050452E-03
  1.3715000E-02    2.0859875E-03
  1.3750000E-02    2.2728455E-03
  1.3785000E-02    2.4650940E-03
  1.3820000E-02    2.6621108E-03
  1.3855000E-02    2.8631934E-03
  1.3890000E-02    3.0675782E-03
  1.3925000E-02    3.2744014E-03
  1.3960000E-02    3.4827294E-03
  1.3995000E-02    3.6915597E-03
  1.4030000E-02    3.8997938E-03
  1.4065000E-02    4.1062678E-03
  1.4100000E-02    4.3097623E-03
  1.4135000E-02    4.5089712E-03
  1.4170000E-02    4.7025355E-03
  1.4205000E-02    4.8890575E-03
  1.4240000E-02    5.0670798E-03
  1.4275000E-02    5.2351085E-03
  1.4310000E-02    5.3916299E-03
  1.4345000E-02    5.5351015E-03
  1.4380000E-02    5.6639784E-03
  1.4415000E-02    5.7767257E-03
  1.4450000E-02    5.8718105E-03
  1.4485000E-02    5.9477342E-03
  1.4520000E-02    6.0030455E-03
  1.4555000E-02    6.0363342E-03
  1.4590000E-02    6.0462663E-03
  1.4625000E-02    6.0315952E-03
  1.4660000E-02    5.9911502E-03
  1.4695000E-02    5.9238751E-03
  1.4730000E-02    5.8288509E-03
  1.4765000E-02    5.7052658E-03
  1.4800000E-02    5.5524651E-03
  1.4835000E-02    5.3699636E-03
  1.4870000E-02    5.1574111E-03
  1.4905000E-02    4.9146451E-03
  1.4940000E-02    4.6417112E-03
  1.4975000E-02    4.3388018E-03
  1.5010000E-02    4.0063104E-03
  1.5045000E-02    3.6448652E-03
  1.5080000E-02    3.2552562E-03
  1.5115000E-02    2.8384628E-03
  1.5150000E-02    2.3956955E-03
  1.5185000E-02    1.9283387E-03
  1.5220000E-02    1.4379552E-03
  1.5255000E-02    9.2631154E-04
  1.5290000E-02    3.9532757E-04
  1.5325000E-02   -1.5291717E-04
  1.5360000E-02   -7.1617647E-04
  1.5395000E-02   -1.2920930E-03
  1.5430000E-02   -1.8781811E-03
  1.5465000E-02   -2.4718354E-03
  1.5500000E-02   -3.0703945E-03
  1.5535000E-02   -3.6711213E-03
  1.5570000E-02   -4.2712097E-03
  1.5605000E-02   -4.8678741E-03
  1.5640000E-02   -5.4583023E-03
  1.5675001E-02   -6.0396586E-03
  1.5710000E-02   -6.6092000E-03
  1.5745001E-02   -7.1642376E-03
  1.5780000E-02   -7.7021020E-03
  1.5814999E-02   -8.2202721E-03
  1.5850000E-02   -8.7163607E-03
  1.5884999E-02   -9.1880476E-03
  1.5920000E-02   -9.6331993E-03
  1.5954999E-02   -1.0049867E-02
  1.5990000E-02   -1.0436234E-02
  1.6024999E-02   -1.0790700E-02
  1.6060000E-02   -1.1111896E-02
  1.6094999E-02   -1.1398588E-02
  1.6130000E-02   -1.1649798E-02
  1.6164999E-02   -1.1864797E-02
  1.6200000E-02   -1.2043012E-02
  1.6235000E-02   -1.2184120E-02
  1.6270000E-02   -1.2288058E-02
  1.6305000E-02   -1.2354924E-02
  1.6340001E-02   -1.2385024E-02
  1.6375000E-02   -1.2378912E-02
  1.6410001E-02   -1.2337322E-02
  1.6445000E-02   -1.2261147E-02
  1.6480001E-02   -1.2151478E-02
  1.6515000E-02   -1.2009563E-02
  1.6550001E-02   -1.1836789E-02
  1.6585000E-02   -1.1634680E-02
  1.6620001E-02   -1.1404878E-02
  1.6655000E-02   -1.1149125E-02
  1.6690001E-02   -1.0869250E-02
  1.6725000E-02   -1.0567144E-02
  1.6759999E-02   -1.0244754E-02
  1.6795000E-02   -9.9040633E-03
  1.6829999E-02   -9.5470613E-03
  1.6865000E-02   -9.1757672E-03
  1.6899999E-02   -8.7921880E-03
  1.6935000E-02   -8.3982730E-03
  1.6969999E-02   -7.9959603E-03
  1.7005000E-02   -7.5871670E-03
  1.7039999E-02   -7.1736984E-03
  1.7075000E-02   -6.7572934E-03
  1.7109999E-02   -6.3396660E-03
  1.7145000E-02   -5.9224050E-03
  1.7180000E-02   -5.5069900E-03
  1.7215000E-02   -5.0948258E-03
  1.7250000E-02   -4.6872292E-03
  1.7285001E-02   -4.2853989E-03
  1.7320000E-02   -3.8904066E-03
  1.7355001E-02   -3.5032353E-03
  1.7390000E-02   -3.1247823E-03
  1.7425001E-02   -2.7558128E-03
  1.7460000E-02   -2.3969677E-03
  1.7495001E-02   -2.0488347E-03
  1.7530000E-02   -1.7118969E-03
  1.7565001E-02   -1.3864976E-03
  1.7600000E-02   -1.0729320E-03
  1.7635001E-02   -7.7142578E-04
  1.7670000E-02   -4.8207343E-04
  1.7704999E-02   -2.0492187E-04
  1.7740000E-02    6.0015656E-05
  1.7774999E-02    3.1283667E-04
  1.7810000E-02    5.5368192E-04
  1.7844999E-02    7.8270235E-04
  1.7880000E-02    1.0001387E-03
  1.7914999E-02    1.2062729E-03
  1.7950000E-02    1.4013742E-03
  1.7984999E-02    1.5857677E-03
  1.8020000E-02    1.7598202E-03
  1.8054999E-02    1.9238808E-03
  1.8090000E-02    2.0783162E-03
  1.8124999E-02    2.2235226E-03
  1.8160000E-02    2.3598906E-03
  1.8195000E-02    2.4878087E-03
  1.8230001E-02    2.6076687E-03
  1.8265000E-02    2.7198570E-03
  1.8300001E-02    2.8247591E-03
  1.8335000E-02    2.9227396E-03
  1.8370001E-02    3.0141592E-03
  1.8405000E-02    3.0993840E-03
  1.8440001E-02    3.1787439E-03
  1.8475000E-02    3.2525454E-03
  1.8510001E-02    3.3211191E-03
  1.8545000E-02    3.3847746E-03
  1.8580001E-02    3.4437689E-03
  1.8615000E-02    3.4983635E-03
  1.8650001E-02    3.5488347E-03
  1.8685000E-02    3.5954132E-03
  1.8719999E-02    3.6382973E-03
  1.8755000E-02    3.6776999E-03
  1.8789999E-02    3.7138402E-03
  1.8825000E-02    3.7468788E-03
  1.8859999E-02    3.7769536E-03
  1.8895000E-02    3.8042546E-03
  1.8929999E-02    3.8289470E-03
  1.8965000E-02    3.8511124E-03
  1.8999999E-02    3.8708688E-03
  1.9035000E-02    3.8883737E-03
  1.9069999E-02    3.9037112E-03
  1.9105000E-02    3.9169523E-03
  1.9140000E-02    3.9282190E-03
  1.9175000E-02    3.9375881E-03
  1.9210000E-02    3.9451122E-03
  1.9245001E-02    3.9508771E-03
  1.9280000E-02    3.9549535E-03
  1.9315001E-02    3.9573750E-03
  1.9350000E-02    3.9582131E-03
  1.9385001E-02    3.9575314E-03
  1.9420000E-02    3.9553605E-03
  1.9455001E-02    3.9517544E-03
  1.9490000E-02    3.9467574E-03
  1.9525001E-02    3.9403965E-03
  1.9560000E-02    3.9327322E-03
  1.9595001E-02    3.9238082E-03
  1.9630000E-02    3.9136368E-03
  1.9664999E-02    3.9022686E-03
  1.9700000E-02    3.8897584E-03
  1.9734999E-02    3.8761080E-03
  1.9770000E-02    3.8613593E-03
  1.9804999E-02    3.8455834E-03
  1.9840000E-02    3.8287865E-03
  1.9874999E-02    3.8109892E-03
  1.9910000E-02    3.7922652E-03
  1.9944999E-02    3.7726399E-03
  1.9980000E-02    3.7521229E-03
  2.0014999E-02    3.7307756E-03
  2.0050000E-02    3.7086392E-03
  2.0085000E-02    3.6857277E-03
  2.0120000E-02    3.6620910E-03
  2.0155000E-02    3.6377718E-03
  2.0190001E-02    3.6127891E-03
  2.0225000E-02    3.5871884E-03
  2.0260001E-02    3.5610222E-03
  2.0295000E-02    3.5343168E-03
  2.0330001E-02    3.5071040E-03
  2.0365000E-02    3.4794307E-03
  2.0400001E-02    3.4513280E-03
  2.0435000E-02    3.4228249E-03
  2.0470001E-02    3.3939627E-03
  2.0505000E-02    3.3647828E-03
  2.0540001E-02    3.3353136E-03
  2.0575000E-02    3.3055751E-03
  2.0609999E-02    3.2756047E-03
  2.0645000E-02    3.2454447E-03
  2.0679999E-02    3.2151127E-03
  2.0715000E-02    3.1846326E-03
  2.0749999E-02    3.1540515E-03
  2.0785000E-02    3.1233912E-03
  2.0819999E-02    3.0926599E-03
  2.0855000E-02    3.0618913E-03
  2.0889999E-02    3.0311095E-03
  2.0925000E-02    3.0003288E-03
  2.0959999E-02    2.9695707E-03
  2.0995000E-02    2.9388499E-03
  2.1029999E-02    2.9081723E-03
  2.1065000E-02    2.8775563E-03
  2.1100000E-02    2.8470110E-03
  2.1135001E-02    2.8165434E-03
  2.1170000E-02    2.7861765E-03
  2.1205001E-02    2.7559148E-03
  2.1240000E-02    2.7257570E-03
  2.1275001E-02    2.6957202E-03
  2.1310000E-02    2.6658031E-03
  2.1345001E-02    2.6359987E-03
  2.1380000E-02    2.6063214E-03
  2.1415001E-02    2.5767663E-03
  2.1450000E-02    2.5473193E-03
  2.1485001E-02    2.5179973E-03
  2.1520000E-02    2.4887978E-03
  2.1555001E-02    2.4597007E-03
  2.1590000E-02    2.4307154E-03
  2.1624999E-02    2.4018399E-03
  2.1660000E-02    2.3730549E-03
  2.1694999E-02    2.3443697E-03
  2.1730000E-02    2.3157797E-03
  2.1764999E-02    2.2872679E-03
  2.1800000E-02    2.2588512E-03
  2.1834999E-02    2.2305227E-03
  2.1870000E-02    2.2022543E-03
  2.1904999E-02    2.1740661E-03
  2.1940000E-02    2.1459684E-03
  2.1974999E-02    2.1179214E-03
  2.2010000E-02    2.0899279E-03
  2.2045000E-02    2.0620190E-03
  2.2080000E-02    2.0341808E-03
  2.2115000E-02    2.0063943E-03
  2.2150001E-02    1.9786716E-03
  2.2185000E-02    1.9510220E-03
  2.2220001E-02    1.9234446E-03
  2.2255000E-02    1.8959383E-03
  2.2290001E-02    1.8685092E-03
  2.2325000E-02    1.8411677E-03
  2.2360001E-02    1.8139170E-03
  2.2395000E-02    1.7867642E-03
  2.2430001E-02    1.7597214E-03
  2.2465000E-02    1.7327871E-03
  2.2500001E-02    1.7059706E-03
  2.2535000E-02    1.6792942E-03
  2.2569999E-02    1.6527585E-03
  2.2605000E-02    1.6263662E-03
  2.2639999E-02    1.6001412E-03
  2.2675000E-02    1.5740895E-03
  2.2709999E-02    1.5482106E-03
  2.2745000E-02    1.5225294E-03
  2.2779999E-02    1.4970545E-03
  2.2815000E-02    1.4717865E-03
  2.2849999E-02    1.4467470E-03
  2.2885000E-02    1.4219428E-03
  2.2919999E-02    1.3973742E-03
  2.2955000E-02    1.3730624E-03
  2.2990000E-02    1.3490146E-03
  2.3025000E-02    1.3252281E-03
  2.3060000E-02    1.3017162E-03
  2.3095001E-02    1.2784804E-03
  2.3130000E-02    1.2555271E-03
  2.3165001E-02    1.2328755E-03
  2.3200000E-02    1.2105058E-03
  2.3235001E-02    1.1884075E-03
  2.3270000E-02    1.1666204E-03
  2.3305001E-02    1.1451280E-03
  2.3340000E-02    1.1238856E-03
  2.3375001E-02    1.1029311E-03
  2.3410000E-02    1.0822845E-03
  2.3445001E-02    1.0618920E-03
  2.3480000E-02    1.0417622E-03
  2.3514999E-02    1.0219216E-03
  2.3550000E-02    1.0023165E-03
  2.3584999E-02    9.8294031E-04
  2.3620000E-02    9.6383283E-04
  2.3654999E-02    9.4494520E-04
  2.3690000E-02    9.2624291E-04
  2.3724999E-02    9.0777455E-04
  2.3760000E-02    8.8951120E-04
  2.3794999E-02    8.7138533E-04
  2.3830000E-02    8.5343554E-04
  2.3864999E-02    8.3567703E-04
  2.3900000E-02    8.1803842E-04
  2.3934999E-02    8.0052018E-04
  2.3970000E-02    7.8315992E-04
  2.4005000E-02    7.6590932E-04
  2.4040001E-02    7.4873632E-04
  2.4075000E-02    7.3167268E-04
  2.4110001E-02    7.1470602E-04
  2.4145000E-02    6.9780147E-04
  2.4180001E-02    6.8097230E-04
  2.4215000E-02    6.6422392E-04
  2.4250001E-02    6.4753077E-04
  2.4285000E-02    6.3088583E-04
  2.4320001E-02    6.1429909E-04
  2.4355000E-02    5.9777399E-04
  2.4390001E-02    5.8129855E-04
  2.4425000E-02    5.6486088E-04
  2.4460001E-02    5.4847717E-04
  2.4495000E-02    5.3216115E-04
  2.4529999E-02    5.1589019E-04
  2.4565000E-02    4.9966597E-04
  2.4599999E-02    4.8352225E-04
  2.4635000E-02    4.6745042E-04
  2.4669999E-02    4.5143638E-04
  2.4705000E-02    4.3551420E-04
  2.4739999E-02    4.1969592E-04
  2.4775000E-02    4.0396245E-04
  2.4809999E-02    3.8833165E-04
  2.4845000E-02    3.7282665E-04
  2.4879999E-02    3.5744102E-04
  2.4915000E-02    3.4218290E-04
  2.4950000E-02    3.2706893E-04
  2.4985000E-02    3.1209717E-04
  2.5020000E-02    2.9727755E-04
  2.5055001E-02    2.8263062E-04
  2.5090000E-02    2.6815227E-04
  2.5125001E-02    2.5383907E-04
  2.5160000E-02    2.3971833E-04
  2.5195001E-02    2.2581022E-04
  2.5230000E-02    2.1209888E-04
  2.5265001E-02    1.9857993E-04
  2.5300000E-02    1.8528149E-04
  2.5335001E-02    1.7220456E-04
  2.5370000E-02    1.5932736E-04
  2.5405001E-02    1.4667137E-04
  2.5440000E-02    1.3425814E-04
  2.5474999E-02    1.2206052E-04
  2.5510000E-02    1.1007547E-04
  2.5544999E-02    9.8327379E-05
  2.5580000E-02    8.6799926E-05
  2.5614999E-02    7.5483396E-05
  2.5650000E-02    6.4398337E-05
  2.5684999E-02    5.3527270E-05
  2.5720000E-02    4.2852680E-05
  2.5754999E-02    3.2398038E-05
  2.5790000E-02    2.2151593E-05
  2.5824999E-02    1.2083565E-05
  2.5860000E-02    2.2130714E-06
  2.5895000E-02   -7.4599052E-06
  2.5930000E-02   -1.6971799E-05
  2.5965000E-02   -2.6314758E-05
  2.6000001E-02   -3.5474859E-05
  2.6035000E-02   -4.4486529E-05
  2.6070001E-02   -5.3364020E-05
  2.6105000E-02   -6.2086561E-05
  2.6140001E-02   -7.0665963E-05
  2.6175000E-02   -7.9134239E-05
  2.6210001E-02   -8.7491906E-05
  2.6245000E-02   -9.5727220E-05
  2.6280001E-02   -1.0385497E-04
  2.6315000E-02   -1.1190095E-04
  2.6350001E-02   -1.1986574E-04
  2.6385000E-02   -1.2773833E-04
  2.6419999E-02   -1.3553230E-04
  2.6455000E-02   -1.4326547E-04
  2.6489999E-02   -1.5092887E-04
  2.6525000E-02   -1.5851749E-04
  2.6559999E-02   -1.6605361E-04
  2.6595000E-02   -1.7354707E-04
  2.6629999E-02   -1.8098216E-04
  2.6665000E-02   -1.8836548E-04
  2.6699999E-02   -1.9571968E-04
  2.6735000E-02   -2.0303210E-04
  2.6769999E-02   -2.1029139E-04
  2.6805000E-02   -2.1752357E-04
  2.6839999E-02   -2.2471996E-04
  2.6875000E-02   -2.3185076E-04
  2.6910000E-02   -2.3895358E-04
  2.6945001E-02   -2.4604486E-04
  2.6980000E-02   -2.5306104E-04