 -4.8000002E-03    1.0000000E-24
 -4.7650002E-03    1.0000000E-24
 -4.7300002E-03    1.0000002E-24
 -4.6950001E-03    1.0000002E-24
 -4.6600001E-03    1.0000002E-24
 -4.6250001E-03    1.0000001E-24
 -4.5900000E-03    1.0000001E-24
 -4.5550000E-03    1.0000002E-24
 -4.5200000E-03    1.0000001E-24
 -4.4849999E-03    1.0000001E-24
 -4.4499999E-03    1.0000002E-24
 -4.4149999E-03    1.0000003E-24
 -4.3799998E-03    1.0000003E-24
 -4.3449998E-03    1.0000001E-24
 -4.3100002E-03    1.0000000E-24
 -4.2750002E-03    1.0000001E-24
 -4.2400002E-03    1.0000001E-24
 -4.2050001E-03    9.9999992E-25
 -4.1700001E-03    9.9999982E-25
 -4.1350001E-03    1.0000002E-24
 -4.1000000E-03    1.0000005E-24
 -4.0650000E-03    1.0000001E-24
 -4.0300000E-03    9.9999953E-25
 -3.9949999E-03    9.9999982E-25
 -3.9599999E-03    1.0000003E-24
 -3.9249999E-03    1.0000005E-24
 -3.8900001E-03    1.0000002E-24
 -3.8550000E-03    9.9999992E-25
 -3.8200000E-03    1.0000000E-24
 -3.7849999E-03    1.0000002E-24
 -3.7499999E-03    1.0000003E-24
 -3.7150001E-03    1.0000002E-24
 -3.6800001E-03    1.0000002E-24
 -3.6450000E-03    1.0000000E-24
 -3.6100000E-03    9.9999992E-25
 -3.5750000E-03    9.9999992E-25
 -3.5399999E-03    1.0000001E-24
 -3.5049999E-03    1.0000002E-24
 -3.4700001E-03    1.0000002E-24
 -3.4350001E-03    1.0000001E-24
 -3.4000000E-03    1.0000001E-24
 -3.3650000E-03    1.0000003E-24
 -3.3300000E-03    1.0000000E-24
 -3.2949999E-03    9.9999972E-25
 -3.2599999E-03    9.9999992E-25
 -3.2250001E-03    1.0000000E-24
 -3.1900001E-03    9.9999992E-25
 -3.1550000E-03    1.0000002E-24
 -3.1200000E-03    1.0000002E-24
 -3.0850000E-03    1.0000003E-24
 -3.0499999E-03    1.0000002E-24
 -3.0149999E-03    1.0000002E-24
 -2.9800001E-03    9.9999972E-25
 -2.9450001E-03    9.9999913E-25
 -2.9100000E-03    1.0000017E-24
 -2.8750000E-03    1.0000015E-24
 -2.8400000E-03    9.9999055E-25
 -2.8049999E-03    1.0000099E-24
 -2.7699999E-03    1.0000349E-24
 -2.7350001E-03    9.9990555E-25
 -2.7000001E-03    9.9996699E-25
 -2.6650000E-03    1.0004622E-24
 -2.6300000E-03    9.9958971E-25
 -2.5950000E-03    9.9859516E-25
 -2.5599999E-03    1.0030838E-24
 -2.5249999E-03    1.0019679E-24
 -2.4900001E-03    9.8729147E-25
 -2.4550001E-03    1.0057327E-24
 -2.4200000E-03    1.0349689E-24
 -2.3850000E-03    9.4991899E-25
 -2.3500000E-03    9.4460532E-25
 -2.3149999E-03    1.1922193E-24
 -2.2799999E-03    9.6787149E-25
 -2.2450001E-03    5.2396689E-25
 -2.2100001E-03    1.5611359E-24
 -2.1750000E-03    1.6444211E-24
 -2.1400000E-03   -1.1498365E-24
 -2.1050000E-03    1.6501976E-24
 -2.0699999E-03    6.0862788E-24
 -2.0349999E-03   -6.1969529E-24
 -2.0000001E-03   -5.7130443E-24
 -1.9650001E-03    2.7058282E-23
 -1.9300000E-03   -3.8633962E-24
 -1.8950000E-03   -6.3280857E-23
 -1.8600000E-03    6.1548758E-23
 -1.8250000E-03    1.1602167E-22
 -1.7900000E-03   -2.1582439E-22
 -1.7550000E-03   -1.2686714E-22
 -1.7199999E-03    5.4217418E-22
 -1.6850000E-03   -2.7519264E-23
 -1.6500000E-03   -1.0490374E-21
 -1.6150000E-03    5.7266263E-22
 -1.5800000E-03    1.5864923E-21
 -1.5450000E-03   -1.6960375E-21
 -1.5100000E-03   -1.6696548E-21
 -1.4750001E-03    3.2587519E-21
 -1.4400000E-03    4.7557483E-22
 -1.4050000E-03   -4.1927382E-21
 -1.3700000E-03    2.9180535E-21
 -1.3350000E-03    1.8346965E-21
 -1.3000000E-03   -8.8109187E-21
 -1.2650000E-03    8.6212035E-21
 -1.2300001E-03    1.6029166E-20
 -1.1950000E-03   -3.4105991E-20
 -1.1600000E-03   -2.1590488E-20
 -1.1250000E-03    8.3291905E-20
 -1.0900000E-03    2.2228321E-20
 -1.0550000E-03   -1.6651643E-19
 -1.0200000E-03   -1.8757558E-20
 -9.8500005E-04    2.9744887E-19
 -9.5000002E-04    2.3728122E-20
 -9.1499998E-04   -4.9696510E-19
 -8.8000001E-04   -7.1713496E-20
 -8.4499997E-04    7.9730895E-19
 -8.1000000E-04    2.3221105E-19
 -7.7500002E-04   -1.2402704E-18
 -7.3999999E-04   -6.2730358E-19
 -7.0500001E-04    1.8596538E-18
 -6.6999998E-04    1.4596077E-18
 -6.3500000E-04   -2.6364446E-18
 -6.0000003E-04   -3.0554801E-18
 -5.6499999E-04    3.4150116E-18
 -5.3000002E-04    5.9197970E-18
 -4.9499999E-04   -3.7653257E-18
 -4.6000001E-04   -1.0778339E-17
 -4.2500001E-04    2.7668937E-18
 -3.9000000E-04    1.8555445E-17
 -3.5500000E-04    1.3213853E-18
 -3.1999999E-04   -3.0202525E-17
 -2.8499999E-04   -1.1536532E-17
 -2.5000001E-04    4.6259758E-17
 -2.1499999E-04    3.2818017E-17
 -1.8000000E-04   -6.5991688E-17
 -1.4500000E-04   -7.2627477E-17
 -1.1000000E-04    8.5881815E-17
 -7.5000004E-05    1.4129967E-16
 -3.9999999E-05   -9.7222005E-17
 -4.9999999E-06   -2.5162170E-16
  2.9999999E-05    8.2566350E-17
  6.5000000E-05    4.1685339E-16
  9.9999997E-05   -1.1080128E-17
  1.3499999E-04   -6.4605553E-16
  1.7000000E-04   -1.6655978E-16
  2.0500000E-04    9.3526043E-16
  2.3999999E-04    5.2201185E-16
  2.7500000E-04   -1.2529198E-15
  3.1000000E-04   -1.1488147E-15
  3.4500001E-04    1.5185718E-15
  3.8000001E-04    2.1530879E-15
  4.1499999E-04   -1.5752324E-15
  4.4999999E-04   -3.6293121E-15
  4.8500000E-04    1.1591548E-15
  5.2000000E-04    5.6137752E-15
  5.5499998E-04    1.2414010E-16
  5.9000001E-04   -8.0081942E-15
  6.2499999E-04   -2.8012246E-15
  6.6000002E-04    1.0469804E-14
  6.9500000E-04    7.4848464E-15
  7.3000003E-04   -1.2275109E-14
  7.6500000E-04   -1.4750689E-14
  7.9999998E-04    1.2183597E-14
  8.3500001E-04    2.4909494E-14
  8.6999999E-04   -8.3509173E-15
  9.0500002E-04   -3.7660572E-14
  9.4000000E-04   -1.6381743E-15
  9.7499997E-04    5.1635752E-14
  1.0100000E-03    2.0529449E-14
  1.0450000E-03   -6.3878509E-14
  1.0800000E-03   -5.0848618E-14
  1.1150000E-03    6.9369478E-14
  1.1500000E-03    9.3942696E-14
  1.1849999E-03   -6.0818368E-14
  1.2200000E-03   -1.4859553E-13
  1.2550000E-03    2.9042554E-14
  1.2900000E-03    2.0938573E-13
  1.3250000E-03    3.5765810E-14
  1.3600000E-03   -2.6516335E-13
  1.3950000E-03   -1.4175782E-13
  1.4299999E-03    2.9810502E-13
  1.4650000E-03    2.9217544E-13
  1.5000000E-03   -2.8380979E-13
  1.5350000E-03   -4.8121034E-13
  1.5700000E-03    1.9310245E-13
  1.6050000E-03    6.8925166E-13
  1.6400000E-03    3.3984417E-15
  1.6749999E-03   -8.7867214E-13
  1.7100000E-03   -3.2712185E-13
  1.7450000E-03    9.9249656E-13
  1.7800000E-03    7.8053021E-13
  1.8150000E-03   -9.5832706E-13
  1.8500000E-03   -1.3358740E-12
  1.8850000E-03    6.9812407E-13
  1.9200000E-03    1.9263733E-12
  1.9550000E-03   -1.4298328E-13
  1.9900000E-03   -2.4410226E-12
  2.0250001E-03   -7.4682410E-13
  2.0600001E-03    2.7250170E-12
  2.0949999E-03    1.9551756E-12
  2.1299999E-03   -2.5923482E-12
  2.1650000E-03   -3.3802676E-12
  2.2000000E-03    1.8586105E-12
  2.2350000E-03    4.8145927E-12
  2.2700001E-03   -3.9317643E-13
  2.3050001E-03   -5.9501644E-12
  2.3399999E-03   -1.8236461E-12
  2.3749999E-03    6.4129323E-12
  2.4100000E-03    4.6545671E-12
  2.4450000E-03   -5.8179360E-12
  2.4800000E-03   -7.7742196E-12
  2.5150001E-03    3.8420452E-12
  2.5500001E-03    1.0653099E-11
  2.5849999E-03   -3.2550915E-13
  2.6199999E-03   -1.2578519E-11
  2.6550000E-03   -4.5974895E-12
  2.6900000E-03    1.2756157E-11
  2.7250000E-03    1.0386436E-11
  2.7600001E-03   -1.0509571E-11
  2.7950001E-03   -1.6082496E-11
  2.8299999E-03    5.5210246E-12
  2.8649999E-03    2.0440784E-11
  2.9000000E-03    1.9871270E-12
  2.9350000E-03   -2.2160834E-11
  2.9700000E-03   -1.1179650E-11
  3.0050001E-03    2.0139628E-11
  3.0400001E-03    2.0610026E-11
  3.0749999E-03   -1.3753109E-11
  3.1099999E-03   -2.8297056E-11
  3.1450000E-03    3.2221300E-12
  3.1800000E-03    3.2022093E-11
  3.2150000E-03    1.0042868E-11
  3.2500001E-03   -2.9979994E-11
  3.2850001E-03   -2.3462166E-11
  3.3199999E-03    2.1574888E-11
  3.3549999E-03    3.3906426E-11
  3.3900000E-03   -7.8369056E-12
  3.4250000E-03   -3.8626116E-11
  3.4600000E-03   -8.8019999E-12
  3.4950001E-03    3.5924614E-11
  3.5300001E-03    2.5011887E-11
  3.5649999E-03   -2.5496705E-11
  3.5999999E-03   -3.6983201E-11
  3.6350000E-03    8.8667034E-12
  3.6700000E-03    4.1152609E-11
  3.7050000E-03    1.0216599E-11
  3.7400001E-03   -3.5693622E-11
  3.7750001E-03   -2.6478516E-11
  3.8099999E-03    2.1893039E-11
  3.8449999E-03    3.5189719E-11
  3.8800000E-03   -3.8935452E-12
  3.9149998E-03   -3.4037013E-11
  3.9499998E-03   -1.2959104E-11
  3.9849998E-03    2.3517658E-11
  4.0199999E-03    2.3481182E-11
  4.0549999E-03   -6.8064525E-12
  4.0899999E-03   -2.3710358E-11
  4.1250000E-03   -1.0240469E-11
  4.1600000E-03    1.2863315E-11
  4.1950000E-03    2.0668453E-11
  4.2300001E-03    5.2987103E-12
  4.2650001E-03   -1.9753079E-11
  4.3000001E-03   -2.4134814E-11
  4.3350002E-03    6.6151893E-12
  4.3700002E-03    3.6633061E-11
  4.4049998E-03    1.6373656E-11
  4.4399998E-03   -3.5924142E-11
  4.4749998E-03   -4.2465614E-11
  4.5099999E-03    1.7599906E-11
  4.5449999E-03    5.9807312E-11
  4.5799999E-03    1.4336697E-11
  4.6150000E-03   -5.8087889E-11
  4.6500000E-03   -4.7432790E-11
  4.6850001E-03    3.6849104E-11
  4.7200001E-03    7.0589992E-11
  4.7550001E-03   -2.1218906E-12
  4.7900002E-03   -7.8462993E-11
  4.8250002E-03   -4.1327861E-11
  4.8600002E-03    6.4106505E-11
  4.8949998E-03    8.4033454E-11
  4.9299998E-03   -2.1243275E-11
  4.9649999E-03   -1.0514283E-10
  4.9999999E-03   -3.8799606E-11
  5.0349999E-03    8.9894467E-11
  5.0700000E-03    8.9849413E-11
  5.1050000E-03   -4.7271773E-11
  5.1400000E-03   -1.1746627E-10
  5.1750001E-03   -6.4416957E-12
  5.2100001E-03    1.2236684E-10
  5.2450001E-03    6.5261546E-11
  5.2800002E-03   -1.0089866E-10
  5.3150002E-03   -1.2063212E-10
  5.3500002E-03    4.7393676E-11
  5.3849998E-03    1.5180020E-10
  5.4199998E-03    2.7821840E-11
  5.4549999E-03   -1.3986699E-10
  5.4899999E-03   -9.2953756E-11
  5.5249999E-03    9.6873481E-11
  5.5600000E-03    1.3164750E-10
  5.5950000E-03   -4.6428313E-11
  5.6300000E-03   -1.5703276E-10
  5.6650001E-03   -2.2213219E-11
  5.7000001E-03    1.4519430E-10
  5.7350001E-03    7.6124190E-11
  5.7700002E-03   -1.2294420E-10
  5.8050002E-03   -1.4150810E-10
  5.8400002E-03    3.5076268E-11
  5.8749998E-03    1.1244612E-10
  5.9099998E-03   -3.0504148E-11
  5.9449999E-03   -1.6141205E-10
  5.9799999E-03   -8.6778910E-11
  6.0149999E-03    4.5952537E-11
  6.0500000E-03    4.6118703E-12
  6.0850000E-03   -1.6312431E-10
  6.1200000E-03   -2.2999254E-10
  6.1550001E-03   -1.4726931E-10
  6.1900001E-03   -9.1927500E-11
  6.2250001E-03   -1.8394525E-10
  6.2600002E-03   -3.2839553E-10
  6.2950002E-03   -3.7530795E-10
  6.3299998E-03   -3.4296957E-10
  6.3649998E-03   -4.0025666E-10
  6.3999998E-03   -6.1459371E-10
  6.4349999E-03   -8.2256657E-10
  6.4699999E-03   -8.7339758E-10
  6.5049999E-03   -8.9883617E-10
  6.5400000E-03   -1.1295541E-09
  6.5750000E-03   -1.5156648E-09
  6.6100000E-03   -1.8012463E-09
  6.6450001E-03   -1.9645896E-09
  6.6800001E-03   -2.2800093E-09
  6.7150001E-03   -2.8663154E-09
  6.7500002E-03   -3.4888090E-09
  6.7850002E-03   -3.9749923E-09
  6.8199998E-03   -4.5202282E-09
  6.8549998E-03   -5.3617857E-09
  6.8899998E-03   -6.4322907E-09
  6.9249999E-03   -7.5514395E-09
  6.9599999E-03   -8.7236103E-09
  6.9949999E-03   -1.0089785E-08
  7.0300000E-03   -1.1757369E-08
  7.0650000E-03   -1.3748775E-08
  7.1000000E-03   -1.6014164E-08
  7.1350001E-03   -1.8501368E-08
  7.1700001E-03   -2.1287093E-08
  7.2050001E-03   -2.4585150E-08
  7.2400002E-03   -2.8511815E-08
  7.2750002E-03   -3.2924103E-08
  7.3099998E-03   -3.7712628E-08
  7.3449998E-03   -4.3149736E-08
  7.3799998E-03   -4.9605646E-08
  7.4149999E-03   -5.7054496E-08
  7.4499999E-03   -6.5263336E-08
  7.4850000E-03   -7.4341095E-08
  7.5200000E-03   -8.4741743E-08
  7.5550000E-03   -9.6753851E-08
  7.5900001E-03   -1.1023976E-07
  7.6250001E-03   -1.2507383E-07
  7.6600001E-03   -1.4167490E-07
  7.6950002E-03   -1.6065498E-07
  7.7300002E-03   -1.8212346E-07
  7.7650002E-03   -2.0593131E-07
  7.7999998E-03   -2.3232673E-07
  7.8349998E-03   -2.6188061E-07
  7.8699999E-03   -2.9507123E-07
  7.9049999E-03   -3.3211239E-07
  7.9399999E-03   -3.7307700E-07
  7.9750000E-03   -4.1835818E-07
  8.0100000E-03   -4.6874783E-07
  8.0450000E-03   -5.2481892E-07
  8.0800001E-03   -5.8681110E-07
  8.1150001E-03   -6.5510352E-07
  8.1500001E-03   -7.3032288E-07
  8.1850002E-03   -8.1338595E-07
  8.2200002E-03   -9.0524168E-07
  8.2550002E-03   -1.0061318E-06
  8.2900003E-03   -1.1162837E-06
  8.3250003E-03   -1.2371713E-06
  8.3600003E-03   -1.3702563E-06
  8.3950004E-03   -1.5156995E-06
  8.4300004E-03   -1.6739700E-06
  8.4650004E-03   -1.8467013E-06
  8.5000005E-03   -2.0353066E-06
  8.5349996E-03   -2.2406437E-06
  8.5699996E-03   -2.4636383E-06
  8.6049996E-03   -2.7055316E-06
  8.6399997E-03   -2.9680166E-06
  8.6749997E-03   -3.2524340E-06
  8.7099997E-03   -3.5595720E-06
  8.7449998E-03   -3.8913258E-06
  8.7799998E-03   -4.2499441E-06
  8.8149998E-03   -4.6359655E-06
  8.8499999E-03   -5.0505423E-06
  8.8849999E-03   -5.4968464E-06
  8.9199999E-03   -5.9765712E-06
  8.9550000E-03   -6.4900164E-06
  8.9900000E-03   -7.0394544E-06
  9.0250000E-03   -7.6276788E-06
  9.0600001E-03   -8.2561000E-06
  9.0950001E-03   -8.9262548E-06
  9.1300001E-03   -9.6399126E-06
  9.1650002E-03   -1.0399109E-05
  9.2000002E-03   -1.1206673E-05
  9.2350002E-03   -1.2063962E-05
  9.2700003E-03   -1.2971486E-05
  9.3050003E-03   -1.3932371E-05
  9.3400003E-03   -1.4949559E-05
  9.3750004E-03   -1.6023323E-05
  9.4100004E-03   -1.7155260E-05
  9.4450004E-03   -1.8347906E-05
  9.4799995E-03   -1.9601923E-05
  9.5149996E-03   -2.0919284E-05
  9.5499996E-03   -2.2302604E-05
  9.5849996E-03   -2.3751329E-05
  9.6199997E-03   -2.5266039E-05
  9.6549997E-03   -2.6850043E-05
  9.6899997E-03   -2.8503771E-05
  9.7249998E-03   -3.0226489E-05
  9.7599998E-03   -3.2019540E-05
  9.7949998E-03   -3.3883029E-05
  9.8299999E-03   -3.5816789E-05
  9.8649999E-03   -3.7821919E-05
  9.8999999E-03   -3.9896739E-05
  9.9350000E-03   -4.2039675E-05
  9.9700000E-03   -4.4252320E-05
  1.0005000E-02   -4.6532903E-05
  1.0040000E-02   -4.8877642E-05
  1.0075000E-02   -5.1287090E-05
  1.0110000E-02   -5.3759934E-05
  1.0145000E-02   -5.6290883E-05
  1.0180000E-02   -5.8878355E-05
  1.0215000E-02   -6.1521030E-05
  1.0250000E-02   -6.4213571E-05
  1.0285000E-02   -6.6952460E-05
  1.0320000E-02   -6.9734429E-05
  1.0355000E-02   -7.2553550E-05
  1.0390000E-02   -7.5406526E-05
  1.0425000E-02   -7.8289428E-05
  1.0460000E-02   -8.1193859E-05
  1.0495000E-02   -8.4114821E-05
  1.0530000E-02   -8.7048946E-05
  1.0565000E-02   -8.9987305E-05
  1.0600000E-02   -9.2922601E-05
  1.0635000E-02   -9.5850628E-05
  1.0670000E-02   -9.8762444E-05
  1.0705000E-02   -1.0164962E-04
  1.0740000E-02   -1.0450723E-04
  1.0775000E-02   -1.0732614E-04
  1.0810000E-02   -1.1009693E-04
  1.0845000E-02   -1.1281407E-04
  1.0880000E-02   -1.1546834E-04
  1.0915000E-02   -1.1804982E-04
  1.0950000E-02   -1.2055277E-04
  1.0985000E-02   -1.2296789E-04
  1.1020000E-02   -1.2528450E-04
  1.1055000E-02   -1.2749698E-04
  1.1090000E-02   -1.2959760E-04
  1.1125000E-02   -1.3157571E-04
  1.1160000E-02   -1.3342523E-04
  1.1195000E-02   -1.3513911E-04
  1.1230000E-02   -1.3670756E-04
  1.1265000E-02   -1.3812500E-04
  1.1300000E-02   -1.3938567E-04
  1.1335000E-02   -1.4048100E-04
  1.1370000E-02   -1.4140613E-04
  1.1405000E-02   -1.4215632E-04
  1.1440000E-02   -1.4272431E-04
  1.1475000E-02   -1.4310703E-04
  1.1510000E-02   -1.4330221E-04
  1.1545000E-02   -1.4330368E-04
  1.1580000E-02   -1.4310851E-04
  1.1615000E-02   -1.4271695E-04
  1.1650000E-02   -1.4212675E-04
  1.1685000E-02   -1.4133657E-04
  1.1720000E-02   -1.4034676E-04
  1.1755000E-02   -1.3915726E-04
  1.1790000E-02   -1.3777042E-04
  1.1825000E-02   -1.3618935E-04
  1.1860000E-02   -1.3441501E-04
  1.1895000E-02   -1.3245117E-04
  1.1930000E-02   -1.3030376E-04
  1.1965000E-02   -1.2797666E-04
  1.2000000E-02   -1.2547590E-04
  1.2035000E-02   -1.2280910E-04
  1.2070000E-02   -1.1998182E-04
  1.2105000E-02   -1.1700200E-04
  1.2140000E-02   -1.1387985E-04
  1.2175000E-02   -1.1062327E-04
  1.2210000E-02   -1.0724158E-04
  1.2245000E-02   -1.0374601E-04
  1.2280000E-02   -1.0014575E-04
  1.2315000E-02   -9.6452342E-05
  1.2350000E-02   -9.2679024E-05
  1.2385000E-02   -8.8835011E-05
  1.2420000E-02   -8.4931642E-05
  1.2455000E-02   -8.0984195E-05
  1.2490000E-02   -7.7003722E-05
  1.2525000E-02   -7.3000891E-05
  1.2560000E-02   -6.8990419E-05
  1.2595000E-02   -6.4984146E-05
  1.2630000E-02   -6.0993094E-05
  1.2665000E-02   -5.7031593E-05
  1.2700000E-02   -5.3110482E-05
  1.2735000E-02   -4.9239628E-05
  1.2770000E-02   -4.5433455E-05
  1.2805000E-02   -4.1702217E-05
  1.2840000E-02   -3.8052796E-05
  1.2875000E-02   -3.4498018E-05
  1.2910000E-02   -3.1048927E-05
  1.2945000E-02   -2.7710801E-05
  1.2980000E-02   -2.4493054E-05
  1.3015000E-02   -2.1405103E-05
  1.3050000E-02   -1.8450415E-05
  1.3085000E-02   -1.5635602E-05
  1.3120000E-02   -1.2968736E-05
  1.3155000E-02   -1.0451381E-05
  1.3190000E-02   -8.0863119E-06
  1.3225000E-02   -5.8792052E-06
  1.3260000E-02   -3.8302323E-06
  1.3295000E-02   -1.9392264E-06
  1.3330000E-02   -2.0912211E-07
  1.3365000E-02    1.3619876E-06
  1.3400000E-02    2.7771137E-06
  1.3435000E-02    4.0354530E-06
  1.3470000E-02    5.1409129E-06
  1.3505000E-02    6.1001938E-06
  1.3540000E-02    6.9143252E-06
  1.3575000E-02    7.5866737E-06
  1.3610000E-02    8.1268463E-06
  1.3645000E-02    8.5406436E-06
  1.3680000E-02    8.8318793E-06
  1.3715000E-02    9.0093481E-06
  1.3750000E-02    9.0812637E-06
  1.3785000E-02    9.0538451E-06
  1.3820000E-02    8.9366067E-06
  1.3855000E-02    8.7386852E-06
  1.3890000E-02    8.4664616E-06
  1.3925000E-02    8.1287217E-06
  1.3960000E-02    7.7353270E-06
  1.3995000E-02    7.2941407E-06
  1.4030000E-02    6.8138947E-06
  1.4065000E-02    6.3028874E-06
  1.4100000E-02    5.7672560E-06
  1.4135000E-02    5.2159930E-06
  1.4170000E-02    4.6592777E-06
  1.4205000E-02    4.1022081E-06
  1.4240000E-02    3.5496853E-06
  1.4275000E-02    3.0102126E-06
  1.4310000E-02    2.4892176E-06
  1.4345000E-02    1.9898121E-06
  1.4380000E-02    1.5185591E-06
  1.4415000E-02    1.0803980E-06
  1.4450000E-02    6.7618447E-07
  1.4485000E-02    3.0946509E-07
  1.4520000E-02   -1.5478403E-08
  1.4555000E-02   -2.9907875E-07
  1.4590000E-02   -5.4148825E-07
  1.4625000E-02   -7.4018612E-07
  1.4660000E-02   -8.9460832E-07
  1.4695000E-02   -1.0058085E-06
  1.4730000E-02   -1.0753884E-06
  1.4765000E-02   -1.1066418E-06
  1.4800000E-02   -1.1014296E-06
  1.4835000E-02   -1.0600369E-06
  1.4870000E-02   -9.8567489E-07
  1.4905000E-02   -8.8275573E-07
  1.4940000E-02   -7.5484229E-07
  1.4975000E-02   -6.0657442E-07
  1.5010000E-02   -4.4082324E-07
  1.5045000E-02   -2.5883830E-07
  1.5080000E-02   -6.6545802E-08
  1.5115000E-02    1.2922619E-07
  1.5150000E-02    3.2696613E-07
  1.5185000E-02    5.2447342E-07
  1.5220000E-02    7.1560777E-07
  1.5255000E-02    8.9567669E-07
  1.5290000E-02    1.0629728E-06
  1.5325000E-02    1.2169098E-06
  1.5360000E-02    1.3546593E-06
  1.5395000E-02    1.4695513E-06
  1.5430000E-02    1.5591138E-06
  1.5465000E-02    1.6269724E-06
  1.5500000E-02    1.6719857E-06
  1.5535000E-02    1.6902569E-06
  1.5570000E-02    1.6836182E-06
  1.5605000E-02    1.6529093E-06
  1.5640000E-02    1.5966500E-06
  1.5675001E-02    1.5181171E-06
  1.5710000E-02    1.4197046E-06
  1.5745001E-02    1.3018794E-06
  1.5780000E-02    1.1702169E-06
  1.5814999E-02    1.0279834E-06
  1.5850000E-02    8.7377850E-07
  1.5884999E-02    7.1334108E-07
  1.5920000E-02    5.5490716E-07
  1.5954999E-02    4.0140657E-07
  1.5990000E-02    2.5770066E-07
  1.6024999E-02    1.2821258E-07
  1.6060000E-02    1.3998770E-08
  1.6094999E-02   -7.5632933E-08
  1.6130000E-02   -1.2944294E-07
  1.6164999E-02   -1.4773134E-07
  1.6200000E-02   -1.2923094E-07
  1.6235000E-02   -6.4368955E-08
  1.6270000E-02    5.2739516E-08
  1.6305000E-02    2.2636534E-07
  1.6340001E-02    4.6236937E-07
  1.6375000E-02    7.6104959E-07
  1.6410001E-02    1.1260622E-06
  1.6445000E-02    1.5682850E-06
  1.6480001E-02    2.0896714E-06
  1.6515000E-02    2.6862572E-06
  1.6550001E-02    3.3627264E-06
  1.6585000E-02    4.1250423E-06
  1.6620001E-02    4.9727701E-06
  1.6655000E-02    5.9064587E-06
  1.6690001E-02    6.9257294E-06
  1.6725000E-02    8.0268401E-06
  1.6759999E-02    9.2108057E-06
  1.6795000E-02    1.0479351E-05
  1.6829999E-02    1.1827124E-05
  1.6865000E-02    1.3250168E-05
  1.6899999E-02    1.4747475E-05
  1.6935000E-02    1.6312673E-05
  1.6969999E-02    1.7939610E-05
  1.7005000E-02    1.9625864E-05
  1.7039999E-02    2.1364014E-05
  1.7075000E-02    2.3145602E-05
  1.7109999E-02    2.4967017E-05
  1.7145000E-02    2.6818758E-05
  1.7180000E-02    2.8687589E-05
  1.7215000E-02    3.0569325E-05
  1.7250000E-02    3.2458396E-05
  1.7285001E-02    3.4339904E-05
  1.7320000E-02    3.6203932E-05
  1.7355001E-02    3.8043509E-05
  1.7390000E-02    3.9843868E-05
  1.7425001E-02    4.1594816E-05
  1.7460000E-02    4.3292239E-05
  1.7495001E-02    4.4921104E-05
  1.7530000E-02    4.6466601E-05
  1.7565001E-02    4.7923109E-05
  1.7600000E-02    4.9277976E-05
  1.7635001E-02    5.0517730E-05
  1.7670000E-02    5.1637893E-05
  1.7704999E-02    5.2626110E-05
  1.7740000E-02    5.3467113E-05
  1.7774999E-02    5.4157881E-05
  1.7810000E-02    5.4690892E-05
  1.7844999E-02    5.5050779E-05
  1.7880000E-02    5.5233999E-05
  1.7914999E-02    5.5236178E-05
  1.7950000E-02    5.5043867E-05
  1.7984999E-02    5.4654927E-05
  1.8020000E-02    5.4068609E-05
  1.8054999E-02    5.3273543E-05
  1.8090000E-02    5.2267762E-05
  1.8124999E-02    5.1056035E-05
  1.8160000E-02    4.9631752E-05
  1.8195000E-02    4.7992780E-05
  1.8230001E-02    4.6144462E-05
  1.8265000E-02    4.4085977E-05
  1.8300001E-02    4.1820793E-05
  1.8335000E-02    3.9355698E-05
  1.8370001E-02    3.6692396E-05
  1.8405000E-02    3.3838140E-05
  1.8440001E-02    3.0802719E-05
  1.8475000E-02    2.7590695E-05
  1.8510001E-02    2.4213856E-05
  1.8545000E-02    2.0684638E-05
  1.8580001E-02    1.7008308E-05
  1.8615000E-02    1.3198463E-05
  1.8650001E-02    9.2734981E-06
  1.8685000E-02    5.2440173E-06
  1.8719999E-02    1.1226598E-06
  1.8755000E-02   -3.0743370E-06
  1.8789999E-02   -7.3341012E-06
  1.8825000E-02   -1.1638379E-05
  1.8859999E-02   -1.5964661E-05
  1.8895000E-02   -2.0302423E-05
  1.8929999E-02   -2.4640096E-05
  1.8965000E-02   -2.8952818E-05
  1.8999999E-02   -3.3225308E-05
  1.9035000E-02   -3.7448855E-05
  1.9069999E-02   -4.1600375E-05
  1.9105000E-02   -4.5659377E-05
  1.9140000E-02   -4.9615326E-05
  1.9175000E-02   -5.3456588E-05
  1.9210000E-02   -5.7170484E-05
  1.9245001E-02   -6.0741706E-05
  1.9280000E-02   -6.4149230E-05
  1.9315001E-02   -6.7382440E-05
  1.9350000E-02   -7.0436101E-05
  1.9385001E-02   -7.3297677E-05
  1.9420000E-02   -7.5962831E-05
  1.9455001E-02   -7.8428035E-05
  1.9490000E-02   -8.0671714E-05
  1.9525001E-02   -8.2683138E-05
  1.9560000E-02   -8.4472449E-05
  1.9595001E-02   -8.6036714E-05
  1.9630000E-02   -8.7364453E-05
  1.9664999E-02   -8.8459048E-05
  1.9700000E-02   -8.9318441E-05
  1.9734999E-02   -8.9936519E-05
  1.9770000E-02   -9.0321329E-05
  1.9804999E-02   -9.0475514E-05
  1.9840000E-02   -9.0399139E-05
  1.9874999E-02   -9.0104200E-05
  1.9910000E-02   -8.9591027E-05
  1.9944999E-02   -8.8854846E-05
  1.9980000E-02   -8.7911860E-05
  2.0014999E-02   -8.6772590E-05
  2.0050000E-02   -8.5433989E-05
  2.0085000E-02   -8.3911007E-05
  2.0120000E-02   -8.2218037E-05
  2.0155000E-02   -8.0353595E-05
  2.0190001E-02   -7.8327765E-05
  2.0225000E-02   -7.6154385E-05
  2.0260001E-02   -7.3839328E-05
  2.0295000E-02   -7.1397022E-05
  2.0330001E-02   -6.8842630E-05
  2.0365000E-02   -6.6176719E-05
  2.0400001E-02   -6.3403953E-05
  2.0435000E-02   -6.0542730E-05
  2.0470001E-02   -5.7609479E-05
  2.0505000E-02   -5.4611919E-05
  2.0540001E-02   -5.1555577E-05
  2.0575000E-02   -4.8450038E-05
  2.0609999E-02   -4.5306340E-05
  2.0645000E-02   -4.2130749E-05
  2.0679999E-02   -3.8936527E-05
  2.0715000E-02   -3.5740817E-05
  2.0749999E-02   -3.2543441E-05
  2.0785000E-02   -2.9345962E-05
  2.0819999E-02   -2.6165952E-05
  2.0855000E-02   -2.3012892E-05
  2.0889999E-02   -1.9888288E-05
  2.0925000E-02   -1.6805529E-05
  2.0959999E-02   -1.3770207E-05
  2.0995000E-02   -1.0781327E-05
  2.1029999E-02   -7.8499334E-06
  2.1065000E-02   -4.9855057E-06
  2.1100000E-02   -2.1888811E-06
  2.1135001E-02    5.3433359E-07
  2.1170000E-02    3.1784978E-06
  2.1205001E-02    5.7395432E-06
  2.1240000E-02    8.2126062E-06
  2.1275001E-02    1.0602367E-05
  2.1310000E-02    1.2909283E-05
  2.1345001E-02    1.5118036E-05
  2.1380000E-02    1.7224969E-05
  2.1415001E-02    1.9239089E-05
  2.1450000E-02    2.1158061E-05
  2.1485001E-02    2.2982886E-05
  2.1520000E-02    2.4715644E-05
  2.1555001E-02    2.6344176E-05
  2.1590000E-02    2.7873135E-05
  2.1624999E-02    2.9320470E-05
  2.1660000E-02    3.0678948E-05
  2.1694999E-02    3.1939442E-05
  2.1730000E-02    3.3114262E-05
  2.1764999E-02    3.4207285E-05
  2.1800000E-02    3.5217090E-05
  2.1834999E-02    3.6154277E-05
  2.1870000E-02    3.7020433E-05
  2.1904999E-02    3.7812693E-05
  2.1940000E-02    3.8539234E-05
  2.1974999E-02    3.9202507E-05
  2.2010000E-02    3.9804734E-05
  2.2045000E-02    4.0360974E-05
  2.2080000E-02    4.0875326E-05
  2.2115000E-02    4.1339474E-05
  2.2150001E-02    4.1760184E-05
  2.2185000E-02    4.2148014E-05
  2.2220001E-02    4.2503085E-05
  2.2255000E-02    4.2831700E-05
  2.2290001E-02    4.3142241E-05
  2.2325000E-02    4.3431839E-05
  2.2360001E-02    4.3700122E-05
  2.2395000E-02    4.3956708E-05
  2.2430001E-02    4.4206157E-05
  2.2465000E-02    4.4449873E-05
  2.2500001E-02    4.4692442E-05
  2.2535000E-02    4.4931927E-05
  2.2569999E-02    4.5164099E-05
  2.2605000E-02    4.5397286E-05
  2.2639999E-02    4.5639972E-05
  2.2675000E-02    4.5887118E-05
  2.2709999E-02    4.6135585E-05
  2.2745000E-02    4.6391837E-05
  2.2779999E-02    4.6654615E-05
  2.2815000E-02    4.6918547E-05
  2.2849999E-02    4.7188481E-05
  2.2885000E-02    4.7464997E-05
  2.2919999E-02    4.7741811E-05
  2.2955000E-02    4.8024402E-05
  2.2990000E-02    4.8312988E-05
  2.3025000E-02    4.8592465E-05
  2.3060000E-02    4.8864145E-05
  2.3095001E-02    4.9141072E-05
  2.3130000E-02    4.9415867E-05
  2.3165001E-02    4.9682210E-05
  2.3200000E-02    4.9945349E-05
  2.3235001E-02    5.0193259E-05
  2.3270000E-02    5.0417566E-05
  2.3305001E-02    5.0634655E-05
  2.3340000E-02    5.0845567E-05
  2.3375001E-02    5.1032250E-05
  2.3410000E-02    5.1195402E-05
  2.3445001E-02    5.1342649E-05
  2.3480000E-02    5.1467596E-05
  2.3514999E-02    5.1566247E-05
  2.3550000E-02    5.1644183E-05
  2.3584999E-02    5.1702915E-05
  2.3620000E-02    5.1733983E-05
  2.3654999E-02    5.1731444E-05
  2.3690000E-02    5.1703522E-05
  2.3724999E-02    5.1654668E-05
  2.3760000E-02    5.1576590E-05
  2.3794999E-02    5.1472165E-05
  2.3830000E-02    5.1348674E-05
  2.3864999E-02    5.1196890E-05
  2.3900000E-02    5.1015562E-05
  2.3934999E-02    5.0816227E-05
  2.3970000E-02    5.0596696E-05
  2.4005000E-02    5.0355364E-05
  2.4040001E-02    5.0099086E-05
  2.4075000E-02    4.9823429E-05
  2.4110001E-02    4.9529979E-05
  2.4145000E-02    4.9230130E-05
  2.4180001E-02    4.8917995E-05
  2.4215000E-02    4.8591774E-05
  2.4250001E-02    4.8266324E-05
  2.4285000E-02    4.7937308E-05
  2.4320001E-02    4.7597012E-05
  2.4355000E-02    4.7260732E-05
  2.4390001E-02    4.6930723E-05
  2.4425000E-02    4.6595585E-05
  2.4460001E-02    4.6266323E-05
  2.4495000E-02    4.5953806E-05
  2.4529999E-02    4.5649129E-05
  2.4565000E-02    4.5351528E-05
  2.4599999E-02    4.5069006E-05
  2.4635000E-02    4.4799763E-05
  2.4669999E-02    4.4542812E-05
  2.4705000E-02    4.4305154E-05
  2.4739999E-02    4.4088167E-05
  2.4775000E-02    4.3887259E-05
  2.4809999E-02    4.3703432E-05
  2.4845000E-02    4.3540720E-05
  2.4879999E-02    4.3398381E-05
  2.4915000E-02    4.3276574E-05
  2.4950000E-02    4.3176795E-05
  2.4985000E-02    4.3092477E-05
  2.5020000E-02    4.3019438E-05
  2.5055001E-02    4.2967589E-05
  2.5090000E-02    4.2942207E-05
  2.5125001E-02    4.2934229E-05
  2.5160000E-02    4.2936616E-05
  2.5195001E-02    4.2948734E-05
  2.5230000E-02    4.2972872E-05
  2.5265001E-02    4.3013682E-05
  2.5300000E-02    4.3068525E-05
  2.5335001E-02    4.3127449E-05
  2.5370000E-02    4.3186807E-05
  2.5405001E-02    4.3250238E-05
  2.5440000E-02    4.3319953E-05
  2.5474999E-02    4.3392822E-05
  2.5510000E-02    4.3462922E-05
  2.5544999E-02    4.3527962E-05
  2.5580000E-02    4.3586133E-05
  2.5614999E-02    4.3631753E-05
  2.5650000E-02    4.3665499E-05
  2.5684999E-02    4.3691729E-05
  2.5720000E-02    4.3706244E-05
  2.5754999E-02    4.3703709E-05
  2.5790000E-02    4.3679916E-05
  2.5824999E-02    4.3629680E-05
  2.5860000E-02    4.3558881E-05
  2.5895000E-02    4.3472672E-05
  2.5930000E-02    4.3357795E-05
  2.5965000E-02    4.3207077E-05
  2.6000001E-02    4.3030737E-05
  2.6035000E-02    4.2828884E-05
  2.6070001E-02    4.2593496E-05
  2.6105000E-02    4.2327443E-05
  2.6140001E-02    4.2032305E-05
  2.6175000E-02    4.1701143E-05
  2.6210001E-02    4.1332409E-05
  2.6245000E-02    4.0933282E-05
  2.6280001E-02    4.0505631E-05
  2.6315000E-02    4.0042207E-05
  2.6350001E-02    3.9544433E-05
  2.6385000E-02    3.9021041E-05
  2.6419999E-02    3.8465561E-05
  2.6455000E-02    3.7872040E-05
  2.6489999E-02    3.7255035E-05
  2.6525000E-02    3.6620073E-05
  2.6559999E-02    3.5958496E-05
  2.6595000E-02    3.5276607E-05
  2.6629999E-02    3.4577330E-05
  2.6665000E-02    3.3850429E-05
  2.6699999E-02    3.3105975E-05
  2.6735000E-02    3.2358621E-05
  2.6769999E-02    3.1602071E-05
  2.6805000E-02    3.0838612E-05
  2.6839999E-02    3.0075791E-05
  2.6875000E-02    2.9305289E-05
  2.6910000E-02    2.8532571E-05
  2.6945001E-02    2.7774604E-05
  2.6980000E-02    2.7025040E-05