 -4.8000002E-03    1.0000000E-24
 -4.7650002E-03    1.0000002E-24
 -4.7300002E-03    1.0000001E-24
 -4.6950001E-03    1.0000000E-24
 -4.6600001E-03    1.0000003E-24
 -4.6250001E-03    1.0000002E-24
 -4.5900000E-03    1.0000000E-24
 -4.5550000E-03    1.0000002E-24
 -4.5200000E-03    9.9999992E-25
 -4.4849999E-03    1.0000000E-24
 -4.4499999E-03    1.0000002E-24
 -4.4149999E-03    1.0000002E-24
 -4.3799998E-03    9.9999963E-25
 -4.3449998E-03    1.0000000E-24
 -4.3100002E-03    1.0000007E-24
 -4.2750002E-03    1.0000001E-24
 -4.2400002E-03    9.9999982E-25
 -4.2050001E-03    1.0000006E-24
 -4.1700001E-03    1.0000005E-24
 -4.1350001E-03    9.9999953E-25
 -4.1000000E-03    9.9999963E-25
 -4.0650000E-03    1.0000003E-24
 -4.0300000E-03    1.0000001E-24
 -3.9949999E-03    9.9999972E-25
 -3.9599999E-03    1.0000004E-24
 -3.9249999E-03    1.0000005E-24
 -3.8900001E-03    9.9999972E-25
 -3.8550000E-03    9.9999982E-25
 -3.8200000E-03    1.0000005E-24
 -3.7849999E-03    1.0000002E-24
 -3.7499999E-03    9.9999972E-25
 -3.7150001E-03    1.0000004E-24
 -3.6800001E-03    1.0000007E-24
 -3.6450000E-03    9.9999972E-25
 -3.6100000E-03    9.9999953E-25
 -3.5750000E-03    1.0000000E-24
 -3.5399999E-03    9.9999992E-25
 -3.5049999E-03    9.9999992E-25
 -3.4700001E-03    1.0000007E-24
 -3.4350001E-03    1.0000005E-24
 -3.4000000E-03    9.9999992E-25
 -3.3650000E-03    9.9999992E-25
 -3.3300000E-03    1.0000001E-24
 -3.2949999E-03    9.9999972E-25
 -3.2599999E-03    9.9999992E-25
 -3.2250001E-03    1.0000007E-24
 -3.1900001E-03    1.0000004E-24
 -3.1550000E-03    9.9999972E-25
 -3.1200000E-03    9.9999992E-25
 -3.0850000E-03    1.0000004E-24
 -3.0499999E-03    1.0000003E-24
 -3.0149999E-03    1.0000005E-24
 -2.9800001E-03    9.9999913E-25
 -2.9450001E-03    9.9999627E-25
 -2.9100000E-03    1.0000124E-24
 -2.8750000E-03    1.0000073E-24
 -2.8400000E-03    9.9992715E-25
 -2.8049999E-03    1.0000643E-24
 -2.7699999E-03    1.0002595E-24
 -2.7350001E-03    9.9937396E-25
 -2.7000001E-03    9.9964888E-25
 -2.6650000E-03    1.0030647E-24
 -2.6300000E-03    9.9787384E-25
 -2.5950000E-03    9.9037799E-25
 -2.5599999E-03    1.0184625E-24
 -2.5249999E-03    1.0156801E-24
 -2.4900001E-03    9.1881657E-25
 -2.4550001E-03    1.0275234E-24
 -2.4200000E-03    1.2418992E-24
 -2.3850000E-03    6.8020892E-25
 -2.3500000E-03    5.4425994E-25
 -2.3149999E-03    2.3930145E-24
 -2.2799999E-03    1.0880309E-24
 -2.2450001E-03   -3.1109446E-24
 -2.2100001E-03    4.3664106E-24
 -2.1750000E-03    9.4601273E-24
 -2.1400000E-03   -1.5346969E-23
 -2.1050000E-03   -7.7201857E-24
 -2.0699999E-03    5.0820164E-23
 -2.0349999E-03   -1.7358471E-23
 -2.0000001E-03   -1.0939772E-22
 -1.9650001E-03    1.3356774E-22
 -1.9300000E-03    1.6589150E-22
 -1.8950000E-03   -4.4122230E-22
 -1.8600000E-03   -5.4701811E-23
 -1.8250000E-03    1.0631714E-21
 -1.7900000E-03   -6.3737947E-22
 -1.7550000E-03   -1.9234875E-21
 -1.7199999E-03    2.7326602E-21
 -1.6850000E-03    2.3240265E-21
 -1.6500000E-03   -7.3436093E-21
 -1.6150000E-03   -1.4390232E-22
 -1.5800000E-03    1.5213291E-20
 -1.5450000E-03   -8.9932530E-21
 -1.5100000E-03   -2.4914481E-20
 -1.4750001E-03    3.2008755E-20
 -1.4400000E-03    2.9811066E-20
 -1.4050000E-03   -7.6729390E-20
 -1.3700000E-03   -1.4226377E-20
 -1.3350000E-03    1.4697830E-19
 -1.3000000E-03   -4.9177144E-20
 -1.2650000E-03   -2.3346803E-19
 -1.2300001E-03    1.9777081E-19
 -1.1950000E-03    3.0164214E-19
 -1.1600000E-03   -4.6945648E-19
 -1.1250000E-03   -2.7985684E-19
 -1.0900000E-03    8.8333408E-19
 -1.0550000E-03    5.3414516E-20
 -1.0200000E-03   -1.4113354E-18
 -9.8500005E-04    5.3055525E-19
 -9.5000002E-04    1.9448487E-18
 -9.1499998E-04   -1.6448196E-18
 -8.8000001E-04   -2.2607901E-18
 -8.4499997E-04    3.4514882E-18
 -8.1000000E-04    1.9893216E-18
 -7.7500002E-04   -6.0610150E-18
 -7.3999999E-04   -5.8164689E-19
 -7.0500001E-04    9.4797901E-18
 -6.6999998E-04   -2.7234700E-18
 -6.3500000E-04   -1.3540574E-17
 -6.0000003E-04    8.9300169E-18
 -5.6499999E-04    1.7811053E-17
 -5.3000002E-04   -1.9298393E-17
 -4.9499999E-04   -2.1486197E-17
 -4.6000001E-04    3.5325529E-17
 -4.2500001E-04    2.3285639E-17
 -3.9000000E-04   -5.8679769E-17
 -3.5500000E-04   -2.1380946E-17
 -3.1999999E-04    9.1085278E-17
 -2.8499999E-04    1.3357660E-17
 -2.5000001E-04   -1.3413738E-16
 -2.1499999E-04    3.8140161E-18
 -1.8000000E-04    1.8898128E-16
 -1.4500000E-04   -3.3827214E-17
 -1.1000000E-04   -2.5571194E-16
 -7.5000004E-05    8.1085141E-17
 -3.9999999E-05    3.3230855E-16
 -4.9999999E-06   -1.5068316E-16
  2.9999999E-05   -4.1299881E-16
  6.5000000E-05    2.4832751E-16
  9.9999997E-05    4.8619622E-16
  1.3499999E-04   -3.8040361E-16
  1.7000000E-04   -5.3244983E-16
  2.0500000E-04    5.5467158E-16
  2.3999999E-04    5.2291987E-16
  2.7500000E-04   -7.8223212E-16
  3.1000000E-04   -4.1865718E-16
  3.4500001E-04    1.0813287E-15
  3.8000001E-04    1.7088620E-16
  4.1499999E-04   -1.4830390E-15
  4.4999999E-04    2.7678432E-16
  4.8500000E-04    2.0375168E-15
  5.2000000E-04   -9.8215344E-16
  5.5499998E-04   -2.8173984E-15
  5.9000001E-04    1.9924792E-15
  6.2499999E-04    3.9140473E-15
  6.6000002E-04   -3.3277212E-15
  6.9500000E-04   -5.4244316E-15
  7.3000003E-04    4.9623701E-15
  7.6500000E-04    7.4289101E-15
  7.9999998E-04   -6.8092047E-15
  8.3500001E-04   -9.9567190E-15
  8.6999999E-04    8.7115721E-15
  9.0500002E-04    1.2930690E-14
  9.4000000E-04   -1.0462585E-14
  9.7499997E-04   -1.6094602E-14
  1.0100000E-03    1.1873507E-14
  1.0450000E-03    1.8956709E-14
  1.0800000E-03   -1.2886005E-14
  1.1150000E-03   -2.0787964E-14
  1.1500000E-03    1.3693816E-14
  1.1849999E-03    2.0672842E-14
  1.2200000E-03   -1.4877160E-14
  1.2550000E-03   -1.7614543E-14
  1.2900000E-03    1.7594767E-14
  1.3250000E-03    1.0791229E-14
  1.3600000E-03   -2.3747926E-14
  1.3950000E-03   -2.9466036E-17
  1.4299999E-03    3.5844944E-14
  1.4650000E-03   -1.3744206E-14
  1.5000000E-03   -5.6507536E-14
  1.5350000E-03    2.8390681E-14
  1.5700000E-03    8.8010708E-14
  1.6050000E-03   -4.0502358E-14
  1.6400000E-03   -1.3188982E-13
  1.6749999E-03    4.4948925E-14
  1.7100000E-03    1.8775487E-13
  1.7450000E-03   -3.4956796E-14
  1.7800000E-03   -2.5137531E-13
  1.8150000E-03    4.2454071E-15
  1.8500000E-03    3.1440391E-13
  1.8850000E-03    5.0276457E-14
  1.9200000E-03   -3.6651655E-13
  1.9550000E-03   -1.2847864E-13
  1.9900000E-03    3.9581833E-13
  2.0250001E-03    2.2705903E-13
  2.0600001E-03   -3.8636726E-13
  2.0949999E-03   -3.3370206E-13
  2.1299999E-03    3.2187285E-13
  2.1650000E-03    4.2161787E-13
  2.2000000E-03   -1.9860685E-13
  2.2350000E-03   -4.5825035E-13
  2.2700001E-03    2.9410519E-14
  2.3050001E-03    4.1772976E-13
  2.3399999E-03    1.6853221E-13
  2.3749999E-03   -2.7170944E-13
  2.4100000E-03   -3.6946919E-13
  2.4450000E-03   -2.0235083E-14
  2.4800000E-03    5.0841232E-13
  2.5150001E-03    4.7347618E-13
  2.5500001E-03   -4.8919679E-13
  2.5849999E-03   -1.0380433E-12
  2.6199999E-03    2.4841343E-13
  2.6550000E-03    1.6421534E-12
  2.6900000E-03    2.4418255E-13
  2.7250000E-03   -2.2358788E-12
  2.7600001E-03   -1.0656606E-12
  2.7950001E-03    2.6922253E-12
  2.8299999E-03    2.2783071E-12
  2.8649999E-03   -2.7470136E-12
  2.9000000E-03   -3.7280569E-12
  2.9350000E-03    2.2252256E-12
  2.9700000E-03    5.1209202E-12
  3.0050001E-03   -1.1945472E-12
  3.0400001E-03   -6.3367120E-12
  3.0749999E-03   -3.5569513E-13
  3.1099999E-03    7.2548313E-12
  3.1450000E-03    2.6194214E-12
  3.1800000E-03   -7.2923690E-12
  3.2150000E-03   -5.2752607E-12
  3.2500001E-03    5.9218238E-12
  3.2850001E-03    7.3380252E-12
  3.3199999E-03   -3.5993775E-12
  3.3549999E-03   -8.4146015E-12
  3.3900000E-03    9.3476333E-13
  3.4250000E-03    8.8774960E-12
  3.4600000E-03    2.5859440E-12
  3.4950001E-03   -7.8948471E-12
  3.5300001E-03   -6.8309997E-12
  3.5649999E-03    3.7890650E-12
  3.5999999E-03    9.1198082E-12
  3.6350000E-03    2.2507449E-12
  3.6700000E-03   -7.7398817E-12
  3.7050000E-03   -6.9889272E-12
  3.7400001E-03    5.0512359E-12
  3.7750001E-03    1.1051912E-11
  3.8099999E-03   -1.7697842E-12
  3.8449999E-03   -1.6797244E-11
  3.8800000E-03   -6.6623608E-12
  3.9149998E-03    1.9422875E-11
  3.9499998E-03    1.9826992E-11
  3.9849998E-03   -1.2411283E-11
  4.0199999E-03   -2.7939446E-11
  4.0549999E-03    1.6100768E-12
  4.0899999E-03    2.8888130E-11
  4.1250000E-03    4.6747363E-12
  4.1600000E-03   -3.2945764E-11
  4.1950000E-03   -1.5142745E-11
  4.2300001E-03    3.6863720E-11
  4.2650001E-03    3.6885134E-11
  4.3000001E-03   -2.2442879E-11
  4.3350002E-03   -4.9762684E-11
  4.3700002E-03   -3.2256550E-12
  4.4049998E-03    3.9942206E-11
  4.4399998E-03    1.2396041E-11
  4.4749998E-03   -3.2954330E-11
  4.5099999E-03   -1.4918676E-11
  4.5449999E-03    3.9835631E-11
  4.5799999E-03    4.0890603E-11
  4.6150000E-03   -2.1077412E-11
  4.6500000E-03   -6.1558258E-11
  4.6850001E-03   -2.8423182E-11
  4.7200001E-03    3.1557715E-11
  4.7550001E-03    4.5552260E-11
  4.7900002E-03    6.9980536E-12
  4.8250002E-03   -2.4697943E-11
  4.8600002E-03   -2.9554176E-12
  4.8949998E-03    3.8125753E-11
  4.9299998E-03    1.8321841E-11
  4.9649999E-03   -6.4139617E-11
  4.9999999E-03   -9.2823152E-11
  5.0349999E-03    6.4519340E-12
  5.0700000E-03    1.1716704E-10
  5.1050000E-03    7.8140654E-11
  5.1400000E-03   -5.2443321E-11
  5.1750001E-03   -6.7861029E-11
  5.2100001E-03    4.2506713E-11
  5.2450001E-03    5.7014577E-11
  5.2800002E-03   -9.2599671E-11
  5.3150002E-03   -1.6176885E-10
  5.3500002E-03    1.3408500E-11
  5.3849998E-03    2.0686912E-10
  5.4199998E-03    1.3865131E-10
  5.4549999E-03   -7.3835785E-11
  5.4899999E-03   -1.1549074E-10
  5.5249999E-03    1.1319546E-11
  5.5600000E-03    3.2388918E-11
  5.5950000E-03   -1.0164384E-10
  5.6300000E-03   -1.3947889E-10
  5.6650001E-03    3.0949705E-11
  5.7000001E-03    2.0039073E-10
  5.7350001E-03    1.7240939E-10
  5.7700002E-03    1.7587364E-11
  5.8050002E-03   -9.7010254E-11
  5.8400002E-03   -1.2604696E-10
  5.8749998E-03   -1.0605397E-10
  5.9099998E-03   -6.1513461E-11
  5.9449999E-03   -1.4958999E-11
  5.9799999E-03    3.5567910E-11
  6.0149999E-03    1.3778277E-10
  6.0500000E-03    2.4504207E-10
  6.0850000E-03    1.6273156E-10
  6.1200000E-03   -1.4400670E-10
  6.1550001E-03   -3.4922762E-10
  6.1900001E-03   -1.9250496E-10
  6.2250001E-03    7.5586835E-11
  6.2600002E-03    8.5241154E-11
  6.2950002E-03   -2.4164455E-11
  6.3299998E-03    1.0550383E-10
  6.3649998E-03    3.2930134E-10
  6.3999998E-03    2.0212870E-10
  6.4349999E-03   -2.0689436E-10
  6.4699999E-03   -3.6417225E-10
  6.5049999E-03   -1.3548268E-10
  6.5400000E-03    4.2384304E-11
  6.5750000E-03   -3.8065530E-11
  6.6100000E-03   -3.4543049E-11
  6.6450001E-03    2.2876590E-10
  6.6800001E-03    3.8451678E-10
  6.7150001E-03    1.7687410E-10
  6.7500002E-03   -1.3318678E-10
  6.7850002E-03   -2.6109301E-10
  6.8199998E-03   -2.2644253E-10
  6.8549998E-03   -1.1184387E-10
  6.8899998E-03    3.6215680E-11
  6.9249999E-03    1.2969782E-10
  6.9599999E-03    1.4991425E-10
  6.9949999E-03    1.9767230E-10
  7.0300000E-03    2.9064445E-10
  7.0650000E-03    2.4708047E-10
  7.1000000E-03   -4.4919474E-11
  7.1350001E-03   -3.1275191E-10
  7.1700001E-03   -2.2688036E-10
  7.2050001E-03    4.0930162E-11
  7.2400002E-03    1.5490847E-10
  7.2750002E-03    2.2408365E-10
  7.3099998E-03    4.2366358E-10
  7.3449998E-03    5.3527061E-10
  7.3799998E-03    3.7213729E-10
  7.4149999E-03    9.5626375E-11
  7.4499999E-03   -4.8394837E-11
  7.4850000E-03    5.7117814E-11
  7.5200000E-03    3.2460026E-10
  7.5550000E-03    5.3685861E-10
  7.5900001E-03    5.9040306E-10
  7.6250001E-03    5.6311988E-10
  7.6600001E-03    6.6078315E-10
  7.6950002E-03    9.7246167E-10
  7.7300002E-03    1.1374164E-09
  7.7650002E-03    9.2583352E-10
  7.7999998E-03    8.5618646E-10
  7.8349998E-03    1.1946981E-09
  7.8699999E-03    1.4297249E-09
  7.9049999E-03    1.4859695E-09
  7.9399999E-03    1.7741605E-09
  7.9750000E-03    2.1848618E-09
  8.0100000E-03    2.4766431E-09
  8.0450000E-03    2.7218674E-09
  8.0800001E-03    3.0278904E-09
  8.1150001E-03    3.5456693E-09
  8.1500001E-03    4.0277621E-09
  8.1850002E-03    4.0980805E-09
  8.2200002E-03    4.4591713E-09
  8.2550002E-03    5.4312617E-09
  8.2900003E-03    5.8678555E-09
  8.3250003E-03    6.1179577E-09
  8.3600003E-03    7.6014812E-09
  8.3950004E-03    9.0958148E-09
  8.4300004E-03    9.3173753E-09
  8.4650004E-03    9.8073505E-09
  8.5000005E-03    1.1224145E-08
  8.5349996E-03    1.2598393E-08
  8.5699996E-03    1.3870105E-08
  8.6049996E-03    1.4877362E-08
  8.6399997E-03    1.5984620E-08
  8.6749997E-03    1.8486608E-08
  8.7099997E-03    2.0921616E-08
  8.7449998E-03    2.2004180E-08
  8.7799998E-03    2.4460114E-08
  8.8149998E-03    2.8027982E-08
  8.8499999E-03    2.9519251E-08
  8.8849999E-03    3.1337652E-08
  8.9199999E-03    3.5637974E-08
  8.9550000E-03    3.9052061E-08
  8.9900000E-03    4.1826464E-08
  9.0250000E-03    4.6348500E-08
  9.0600001E-03    5.0534329E-08
  9.0950001E-03    5.4717955E-08
  9.1300001E-03    6.0561561E-08
  9.1650002E-03    6.5130514E-08
  9.2000002E-03    6.9686912E-08
  9.2350002E-03    7.7534949E-08
  9.2700003E-03    8.4162814E-08
  9.3050003E-03    8.9406193E-08
  9.3400003E-03    9.8954239E-08
  9.3750004E-03    1.0826880E-07
  9.4100004E-03    1.1429839E-07
  9.4450004E-03    1.2458767E-07
  9.4799995E-03    1.3727718E-07
  9.5149996E-03    1.4664185E-07
  9.5499996E-03    1.5854614E-07
  9.5849996E-03    1.7299389E-07
  9.6199997E-03    1.8490317E-07
  9.6549997E-03    2.0020771E-07
  9.6899997E-03    2.1805593E-07
  9.7249998E-03    2.3121711E-07
  9.7599998E-03    2.4814847E-07
  9.7949998E-03    2.7139328E-07
  9.8299999E-03    2.8980116E-07
  9.8649999E-03    3.0958677E-07
  9.8999999E-03    3.3723231E-07
  9.9350000E-03    3.6043772E-07
  9.9700000E-03    3.8258119E-07
  1.0005000E-02    4.1414609E-07
  1.0040000E-02    4.4363517E-07
  1.0075000E-02    4.7037773E-07
  1.0110000E-02    5.0645298E-07
  1.0145000E-02    5.4211705E-07
  1.0180000E-02    5.7409426E-07
  1.0215000E-02    6.1516266E-07
  1.0250000E-02    6.5637255E-07
  1.0285000E-02    6.9284130E-07
  1.0320000E-02    7.4007943E-07
  1.0355000E-02    7.8873603E-07
  1.0390000E-02    8.2770981E-07
  1.0425000E-02    8.7636374E-07
  1.0460000E-02    9.3292221E-07
  1.0495000E-02    9.8082251E-07
  1.0530000E-02    1.0344359E-06
  1.0565000E-02    1.0961184E-06
  1.0600000E-02    1.1488386E-06
  1.0635000E-02    1.2054840E-06
  1.0670000E-02    1.2723449E-06
  1.0705000E-02    1.3307882E-06
  1.0740000E-02    1.3901169E-06
  1.0775000E-02    1.4596666E-06
  1.0810000E-02    1.5209699E-06
  1.0845000E-02    1.5822282E-06
  1.0880000E-02    1.6570060E-06
  1.0915000E-02    1.7240121E-06
  1.0950000E-02    1.7847368E-06
  1.0985000E-02    1.8583204E-06
  1.1020000E-02    1.9283700E-06
  1.1055000E-02    1.9900583E-06
  1.1090000E-02    2.0617611E-06
  1.1125000E-02    2.1323312E-06
  1.1160000E-02    2.1963322E-06
  1.1195000E-02    2.2709951E-06
  1.1230000E-02    2.3446862E-06
  1.1265000E-02    2.4090396E-06
  1.1300000E-02    2.4834028E-06
  1.1335000E-02    2.5594873E-06
  1.1370000E-02    2.6258558E-06
  1.1405000E-02    2.7018662E-06
  1.1440000E-02    2.7814967E-06
  1.1475000E-02    2.8493046E-06
  1.1510000E-02    2.9257362E-06
  1.1545000E-02    3.0116830E-06
  1.1580000E-02    3.0878105E-06
  1.1615000E-02    3.1687059E-06
  1.1650000E-02    3.2602436E-06
  1.1685000E-02    3.3456893E-06
  1.1720000E-02    3.4366483E-06
  1.1755000E-02    3.5397841E-06
  1.1790000E-02    3.6377755E-06
  1.1825000E-02    3.7401537E-06
  1.1860000E-02    3.8569519E-06
  1.1895000E-02    3.9716292E-06
  1.1930000E-02    4.0894943E-06
  1.1965000E-02    4.2212046E-06
  1.2000000E-02    4.3527061E-06
  1.2035000E-02    4.4888252E-06
  1.2070000E-02    4.6402979E-06
  1.2105000E-02    4.7910289E-06
  1.2140000E-02    4.9435621E-06
  1.2175000E-02    5.1123488E-06
  1.2210000E-02    5.2825235E-06
  1.2245000E-02    5.4527986E-06
  1.2280000E-02    5.6392737E-06
  1.2315000E-02    5.8278497E-06
  1.2350000E-02    6.0122766E-06
  1.2385000E-02    6.2122044E-06
  1.2420000E-02    6.4195410E-06
  1.2455000E-02    6.6206412E-06
  1.2490000E-02    6.8301647E-06
  1.2525000E-02    7.0475467E-06
  1.2560000E-02    7.2609678E-06
  1.2595000E-02    7.4804484E-06
  1.2630000E-02    7.7068189E-06
  1.2665000E-02    7.9288047E-06
  1.2700000E-02    8.1527915E-06
  1.2735000E-02    8.3815839E-06
  1.2770000E-02    8.6091331E-06
  1.2805000E-02    8.8423603E-06
  1.2840000E-02    9.0809999E-06
  1.2875000E-02    9.3169610E-06
  1.2910000E-02    9.5600626E-06
  1.2945000E-02    9.8132441E-06
  1.2980000E-02    1.0064571E-05
  1.3015000E-02    1.0322960E-05
  1.3050000E-02    1.0599652E-05
  1.3085000E-02    1.0883767E-05
  1.3120000E-02    1.1177372E-05
  1.3155000E-02    1.1494428E-05
  1.3190000E-02    1.1828731E-05
  1.3225000E-02    1.2177828E-05
  1.3260000E-02    1.2556305E-05
  1.3295000E-02    1.2964723E-05
  1.3330000E-02    1.3397692E-05
  1.3365000E-02    1.3864810E-05
  1.3400000E-02    1.4371843E-05
  1.3435000E-02    1.4918516E-05
  1.3470000E-02    1.5512607E-05
  1.3505000E-02    1.6156344E-05
  1.3540000E-02    1.6846596E-05
  1.3575000E-02    1.7591654E-05
  1.3610000E-02    1.8397790E-05
  1.3645000E-02    1.9263251E-05
  1.3680000E-02    2.0195863E-05
  1.3715000E-02    2.1202040E-05
  1.3750000E-02    2.2275861E-05
  1.3785000E-02    2.3419929E-05
  1.3820000E-02    2.4642293E-05
  1.3855000E-02    2.5939748E-05
  1.3890000E-02    2.7312750E-05
  1.3925000E-02    2.8766372E-05
  1.3960000E-02    3.0294339E-05
  1.3995000E-02    3.1894448E-05
  1.4030000E-02    3.3572549E-05
  1.4065000E-02    3.5322311E-05
  1.4100000E-02    3.7138198E-05
  1.4135000E-02    3.9024682E-05
  1.4170000E-02    4.0972966E-05
  1.4205000E-02    4.2970907E-05
  1.4240000E-02    4.5020610E-05
  1.4275000E-02    4.7114805E-05
  1.4310000E-02    4.9237846E-05
  1.4345000E-02    5.1386847E-05
  1.4380000E-02    5.3551412E-05
  1.4415000E-02    5.5708511E-05
  1.4450000E-02    5.7848360E-05
  1.4485000E-02    5.9961953E-05
  1.4520000E-02    6.2027204E-05
  1.4555000E-02    6.4027430E-05
  1.4590000E-02    6.5945067E-05
  1.4625000E-02    6.7751185E-05
  1.4660000E-02    6.9422589E-05
  1.4695000E-02    7.0937305E-05
  1.4730000E-02    7.2263276E-05
  1.4765000E-02    7.3370858E-05
  1.4800000E-02    7.4227079E-05
  1.4835000E-02    7.4787495E-05
  1.4870000E-02    7.5012838E-05
  1.4905000E-02    7.4863143E-05
  1.4940000E-02    7.4287120E-05
  1.4975000E-02    7.3238356E-05
  1.5010000E-02    7.1666531E-05
  1.5045000E-02    6.9503658E-05
  1.5080000E-02    6.6689026E-05
  1.5115000E-02    6.3167681E-05
  1.5150000E-02    5.8864582E-05
  1.5185000E-02    5.3702341E-05
  1.5220000E-02    4.7610261E-05
  1.5255000E-02    4.0500490E-05
  1.5290000E-02    3.2280703E-05
  1.5325000E-02    2.2868686E-05
  1.5360000E-02    1.2169584E-05
  1.5395000E-02    7.8786314E-08
  1.5430000E-02   -1.3501443E-05
  1.5465000E-02   -2.8675973E-05
  1.5500000E-02   -4.5557776E-05
  1.5535000E-02   -6.4255226E-05
  1.5570000E-02   -8.4880288E-05
  1.5605000E-02   -1.0754778E-04
  1.5640000E-02   -1.3236950E-04
  1.5675001E-02   -1.5946443E-04
  1.5710000E-02   -1.8894942E-04
  1.5745001E-02   -2.2092777E-04
  1.5780000E-02   -2.5550791E-04
  1.5814999E-02   -2.9279868E-04
  1.5850000E-02   -3.3289057E-04
  1.5884999E-02   -3.7587347E-04
  1.5920000E-02   -4.2183741E-04
  1.5954999E-02   -4.7084663E-04
  1.5990000E-02   -5.2295515E-04
  1.6024999E-02   -5.7821657E-04
  1.6060000E-02   -6.3665502E-04
  1.6094999E-02   -6.9827202E-04
  1.6130000E-02   -7.6306437E-04
  1.6164999E-02   -8.3100080E-04
  1.6200000E-02   -9.0201705E-04
  1.6235000E-02   -9.7603304E-04
  1.6270000E-02   -1.0529358E-03
  1.6305000E-02   -1.1325752E-03
  1.6340001E-02   -1.2147767E-03
  1.6375000E-02   -1.2993264E-03
  1.6410001E-02   -1.3859638E-03
  1.6445000E-02   -1.4744005E-03
  1.6480001E-02   -1.5643097E-03
  1.6515000E-02   -1.6553127E-03
  1.6550001E-02   -1.7469925E-03
  1.6585000E-02   -1.8388891E-03
  1.6620001E-02   -1.9304950E-03
  1.6655000E-02   -2.0212608E-03
  1.6690001E-02   -2.1105893E-03
  1.6725000E-02   -2.1978342E-03
  1.6759999E-02   -2.2823177E-03
  1.6795000E-02   -2.3633149E-03
  1.6829999E-02   -2.4400481E-03
  1.6865000E-02   -2.5117241E-03
  1.6899999E-02   -2.5775100E-03
  1.6935000E-02   -2.6365211E-03
  1.6969999E-02   -2.6878677E-03
  1.7005000E-02   -2.7306459E-03
  1.7039999E-02   -2.7639079E-03
  1.7075000E-02   -2.7867069E-03
  1.7109999E-02   -2.7981165E-03
  1.7145000E-02   -2.7971824E-03
  1.7180000E-02   -2.7829634E-03
  1.7215000E-02   -2.7545623E-03
  1.7250000E-02   -2.7110891E-03
  1.7285001E-02   -2.6516842E-03
  1.7320000E-02   -2.5755528E-03
  1.7355001E-02   -2.4819435E-03
  1.7390000E-02   -2.3701652E-03
  1.7425001E-02   -2.2396084E-03
  1.7460000E-02   -2.0897409E-03
  1.7495001E-02   -1.9201245E-03
  1.7530000E-02   -1.7304220E-03
  1.7565001E-02   -1.5203984E-03
  1.7600000E-02   -1.2899501E-03
  1.7635001E-02   -1.0390994E-03
  1.7670000E-02   -7.6797919E-04
  1.7704999E-02   -4.7687552E-04
  1.7740000E-02   -1.6623562E-04
  1.7774999E-02    1.6337514E-04
  1.7810000E-02    5.1123451E-04
  1.7844999E-02    8.7644137E-04
  1.7880000E-02    1.2579680E-03
  1.7914999E-02    1.6546360E-03
  1.7950000E-02    2.0650914E-03
  1.7984999E-02    2.4878511E-03
  1.8020000E-02    2.9212893E-03
  1.8054999E-02    3.3636212E-03
  1.8090000E-02    3.8129624E-03
  1.8124999E-02    4.2673084E-03
  1.8160000E-02    4.7245161E-03
  1.8195000E-02    5.1823664E-03
  1.8230001E-02    5.6385770E-03
  1.8265000E-02    6.0907635E-03
  1.8300001E-02    6.5364963E-03
  1.8335000E-02    6.9733304E-03
  1.8370001E-02    7.3987865E-03
  1.8405000E-02    7.8103817E-03
  1.8440001E-02    8.2056606E-03
  1.8475000E-02    8.5821990E-03
  1.8510001E-02    8.9376289E-03
  1.8545000E-02    9.2696669E-03
  1.8580001E-02    9.5761102E-03
  1.8615000E-02    9.8548830E-03
  1.8650001E-02    1.0104038E-02
  1.8685000E-02    1.0321747E-02
  1.8719999E-02    1.0506375E-02
  1.8755000E-02    1.0656469E-02
  1.8789999E-02    1.0770740E-02
  1.8825000E-02    1.0848112E-02
  1.8859999E-02    1.0887739E-02
  1.8895000E-02    1.0888968E-02
  1.8929999E-02    1.0851381E-02
  1.8965000E-02    1.0774810E-02
  1.8999999E-02    1.0659293E-02
  1.9035000E-02    1.0505118E-02
  1.9069999E-02    1.0312810E-02
  1.9105000E-02    1.0083097E-02
  1.9140000E-02    9.8169455E-03
  1.9175000E-02    9.5155463E-03
  1.9210000E-02    9.1802720E-03
  1.9245001E-02    8.8127041E-03
  1.9280000E-02    8.4146196E-03
  1.9315001E-02    7.9879193E-03
  1.9350000E-02    7.5346688E-03
  1.9385001E-02    7.0571001E-03
  1.9420000E-02    6.5575158E-03
  1.9455001E-02    6.0383226E-03
  1.9490000E-02    5.5020340E-03
  1.9525001E-02    4.9511939E-03
  1.9560000E-02    4.3883696E-03
  1.9595001E-02    3.8161767E-03
  1.9630000E-02    3.2372214E-03
  1.9664999E-02    2.6540735E-03
  1.9700000E-02    2.0692782E-03
  1.9734999E-02    1.4853195E-03
  1.9770000E-02    9.0460276E-04
  1.9804999E-02    3.2946054E-04
  1.9840000E-02   -2.3789296E-04
  1.9874999E-02   -7.9536787E-04
  1.9910000E-02   -1.3409752E-03
  1.9944999E-02   -1.8728639E-03
  1.9980000E-02   -2.3893579E-03
  2.0014999E-02   -2.8889163E-03
  2.0050000E-02   -3.3701302E-03
  2.0085000E-02   -3.8317782E-03
  2.0120000E-02   -4.2728186E-03
  2.0155000E-02   -4.6923254E-03
  2.0190001E-02   -5.0895386E-03
  2.0225000E-02   -5.4639019E-03
  2.0260001E-02   -5.8149770E-03
  2.0295000E-02   -6.1424519E-03
  2.0330001E-02   -6.4462097E-03
  2.0365000E-02   -6.7262575E-03
  2.0400001E-02   -6.9826934E-03
  2.0435000E-02   -7.2157723E-03
  2.0470001E-02   -7.4258614E-03
  2.0505000E-02   -7.6133925E-03
  2.0540001E-02   -7.7789179E-03
  2.0575000E-02   -7.9230824E-03
  2.0609999E-02   -8.0465665E-03
  2.0645000E-02   -8.1501277E-03
  2.0679999E-02   -8.2346015E-03
  2.0715000E-02   -8.3008306E-03
  2.0749999E-02   -8.3496841E-03
  2.0785000E-02   -8.3820783E-03
  2.0819999E-02   -8.3989510E-03
  2.0855000E-02   -8.4012281E-03
  2.0889999E-02   -8.3898231E-03
  2.0925000E-02   -8.3656553E-03
  2.0959999E-02   -8.3296718E-03
  2.0995000E-02   -8.2827564E-03
  2.1029999E-02   -8.2257306E-03
  2.1065000E-02   -8.1594633E-03
  2.1100000E-02   -8.0848113E-03
  2.1135001E-02   -8.0024963E-03
  2.1170000E-02   -7.9132318E-03
  2.1205001E-02   -7.8177750E-03
  2.1240000E-02   -7.7167847E-03
  2.1275001E-02   -7.6108403E-03
  2.1310000E-02   -7.5005405E-03
  2.1345001E-02   -7.3864590E-03
  2.1380000E-02   -7.2690835E-03
  2.1415001E-02   -7.1488474E-03
  2.1450000E-02   -7.0261899E-03
  2.1485001E-02   -6.9015319E-03
  2.1520000E-02   -6.7752120E-03
  2.1555001E-02   -6.6475305E-03
  2.1590000E-02   -6.5188063E-03
  2.1624999E-02   -6.3893162E-03
  2.1660000E-02   -6.2592658E-03
  2.1694999E-02   -6.1288751E-03
  2.1730000E-02   -5.9983558E-03
  2.1764999E-02   -5.8678524E-03
  2.1800000E-02   -5.7375156E-03
  2.1834999E-02   -5.6075114E-03
  2.1870000E-02   -5.4779281E-03
  2.1904999E-02   -5.3488500E-03
  2.1940000E-02   -5.2204202E-03
  2.1974999E-02   -5.0927098E-03
  2.2010000E-02   -4.9657519E-03
  2.2045000E-02   -4.8396485E-03
  2.2080000E-02   -4.7144694E-03
  2.2115000E-02   -4.5902273E-03
  2.2150001E-02   -4.4669746E-03
  2.2185000E-02   -4.3447800E-03
  2.2220001E-02   -4.2236783E-03
  2.2255000E-02   -4.1036927E-03
  2.2290001E-02   -3.9848578E-03
  2.2325000E-02   -3.8672118E-03
  2.2360001E-02   -3.7507908E-03
  2.2395000E-02   -3.6356035E-03
  2.2430001E-02   -3.5216725E-03
  2.2465000E-02   -3.4090576E-03
  2.2500001E-02   -3.2977737E-03
  2.2535000E-02   -3.1878131E-03
  2.2569999E-02   -3.0792227E-03
  2.2605000E-02   -2.9720291E-03
  2.2639999E-02   -2.8662202E-03
  2.2675000E-02   -2.7618329E-03
  2.2709999E-02   -2.6588968E-03
  2.2745000E-02   -2.5573960E-03
  2.2779999E-02   -2.4573524E-03
  2.2815000E-02   -2.3588012E-03
  2.2849999E-02   -2.2617227E-03
  2.2885000E-02   -2.1661203E-03
  2.2919999E-02   -2.0720325E-03
  2.2955000E-02   -1.9794458E-03
  2.2990000E-02   -1.8883384E-03
  2.3025000E-02   -1.7987402E-03
  2.3060000E-02   -1.7106521E-03
  2.3095001E-02   -1.6240380E-03
  2.3130000E-02   -1.5389080E-03
  2.3165001E-02   -1.4552751E-03
  2.3200000E-02   -1.3731034E-03
  2.3235001E-02   -1.2923813E-03
  2.3270000E-02   -1.2131222E-03
  2.3305001E-02   -1.1352939E-03
  2.3340000E-02   -1.0588662E-03
  2.3375001E-02   -9.8384835E-04
  2.3410000E-02   -9.1022172E-04
  2.3445001E-02   -8.3794509E-04
  2.3480000E-02   -7.6701230E-04
  2.3514999E-02   -6.9741247E-04
  2.3550000E-02   -6.2911020E-04
  2.3584999E-02   -5.6208606E-04
  2.3620000E-02   -4.9632136E-04
  2.3654999E-02   -4.3179095E-04
  2.3690000E-02   -3.6848351E-04
  2.3724999E-02   -3.0637599E-04
  2.3760000E-02   -2.4543717E-04
  2.3794999E-02   -1.8565744E-04
  2.3830000E-02   -1.2701334E-04
  2.3864999E-02   -6.9469934E-05
  2.3900000E-02   -1.3022744E-05
  2.3934999E-02    4.2341329E-05
  2.3970000E-02    9.6651340E-05
  2.4005000E-02    1.4991115E-04
  2.4040001E-02    2.0214275E-04
  2.4075000E-02    2.5338246E-04
  2.4110001E-02    3.0361867E-04
  2.4145000E-02    3.5285627E-04
  2.4180001E-02    4.0113894E-04
  2.4215000E-02    4.4845967E-04
  2.4250001E-02    4.9480819E-04
  2.4285000E-02    5.4022891E-04
  2.4320001E-02    5.8472774E-04
  2.4355000E-02    6.2827993E-04
  2.4390001E-02    6.7091139E-04
  2.4425000E-02    7.1264047E-04
  2.4460001E-02    7.5345306E-04
  2.4495000E-02    7.9336209E-04
  2.4529999E-02    8.3238049E-04
  2.4565000E-02    8.7049842E-04
  2.4599999E-02    9.0772158E-04
  2.4635000E-02    9.4406068E-04
  2.4669999E-02    9.7951782E-04
  2.4705000E-02    1.0140955E-03
  2.4739999E-02    1.0477949E-03
  2.4775000E-02    1.0806262E-03
  2.4809999E-02    1.1125931E-03
  2.4845000E-02    1.1436816E-03
  2.4879999E-02    1.1739091E-03
  2.4915000E-02    1.2032968E-03
  2.4950000E-02    1.2318240E-03
  2.4985000E-02    1.2595061E-03
  2.5020000E-02    1.2863810E-03
  2.5055001E-02    1.3124183E-03
  2.5090000E-02    1.3376139E-03
  2.5125001E-02    1.3620307E-03
  2.5160000E-02    1.3856590E-03
  2.5195001E-02    1.4084716E-03
  2.5230000E-02    1.4305264E-03
  2.5265001E-02    1.4518419E-03
  2.5300000E-02    1.4723841E-03
  2.5335001E-02    1.4921894E-03
  2.5370000E-02    1.5112966E-03
  2.5405001E-02    1.5296951E-03
  2.5440000E-02    1.5474004E-03
  2.5474999E-02    1.5644387E-03
  2.5510000E-02    1.5808243E-03
  2.5544999E-02    1.5965889E-03
  2.5580000E-02    1.6117444E-03
  2.5614999E-02    1.6262926E-03
  2.5650000E-02    1.6402749E-03
  2.5684999E-02    1.6537105E-03
  2.5720000E-02    1.6665882E-03
  2.5754999E-02    1.6789453E-03
  2.5790000E-02    1.6908188E-03
  2.5824999E-02    1.7022034E-03
  2.5860000E-02    1.7131142E-03
  2.5895000E-02    1.7235802E-03
  2.5930000E-02    1.7336105E-03
  2.5965000E-02    1.7432239E-03
  2.6000001E-02    1.7524383E-03
  2.6035000E-02    1.7612594E-03
  2.6070001E-02    1.7697114E-03
  2.6105000E-02    1.7778119E-03
  2.6140001E-02    1.7855539E-03
  2.6175000E-02    1.7929539E-03
  2.6210001E-02    1.8000370E-03
  2.6245000E-02    1.8067994E-03
  2.6280001E-02    1.8132421E-03
  2.6315000E-02    1.8193832E-03
  2.6350001E-02    1.8252198E-03
  2.6385000E-02    1.8307447E-03
  2.6419999E-02    1.8359767E-03
  2.6455000E-02    1.8409290E-03
  2.6489999E-02    1.8455855E-03
  2.6525000E-02    1.8499390E-03
  2.6559999E-02    1.8540092E-03
  2.6595000E-02    1.8577949E-03
  2.6629999E-02    1.8612741E-03
  2.6665000E-02    1.8644569E-03
  2.6699999E-02    1.8673562E-03
  2.6735000E-02    1.8699514E-03
  2.6769999E-02    1.8722339E-03
  2.6805000E-02    1.8742149E-03
  2.6839999E-02    1.8758808E-03
  2.6875000E-02    1.8772223E-03
  2.6910000E-02    1.8782511E-03
  2.6945001E-02    1.8789589E-03
  2.6980000E-02    1.8793344E-03