 -4.8000002E-03    1.0000000E-24
 -4.7650002E-03    1.0000002E-24
 -4.7300002E-03    1.0000001E-24
 -4.6950001E-03    1.0000002E-24
 -4.6600001E-03    1.0000003E-24
 -4.6250001E-03    1.0000000E-24
 -4.5900000E-03    1.0000000E-24
 -4.5550000E-03    1.0000002E-24
 -4.5200000E-03    1.0000001E-24
 -4.4849999E-03    9.9999963E-25
 -4.4499999E-03    1.0000001E-24
 -4.4149999E-03    1.0000007E-24
 -4.3799998E-03    1.0000005E-24
 -4.3449998E-03    1.0000000E-24
 -4.3100002E-03    9.9999982E-25
 -4.2750002E-03    1.0000003E-24
 -4.2400002E-03    1.0000003E-24
 -4.2050001E-03    9.9999982E-25
 -4.1700001E-03    9.9999972E-25
 -4.1350001E-03    1.0000004E-24
 -4.1000000E-03    1.0000008E-24
 -4.0650000E-03    1.0000003E-24
 -4.0300000E-03    9.9999963E-25
 -3.9949999E-03    9.9999963E-25
 -3.9599999E-03    1.0000000E-24
 -3.9249999E-03    1.0000003E-24
 -3.8900001E-03    9.9999992E-25
 -3.8550000E-03    9.9999972E-25
 -3.8200000E-03    1.0000006E-24
 -3.7849999E-03    1.0000009E-24
 -3.7499999E-03    9.9999972E-25
 -3.7150001E-03    9.9999913E-25
 -3.6800001E-03    1.0000001E-24
 -3.6450000E-03    1.0000008E-24
 -3.6100000E-03    1.0000001E-24
 -3.5750000E-03    9.9999972E-25
 -3.5399999E-03    1.0000005E-24
 -3.5049999E-03    1.0000007E-24
 -3.4700001E-03    9.9999992E-25
 -3.4350001E-03    9.9999943E-25
 -3.4000000E-03    9.9999972E-25
 -3.3650000E-03    1.0000002E-24
 -3.3300000E-03    1.0000005E-24
 -3.2949999E-03    1.0000005E-24
 -3.2599999E-03    9.9999982E-25
 -3.2250001E-03    9.9999992E-25
 -3.1900001E-03    1.0000003E-24
 -3.1550000E-03    1.0000004E-24
 -3.1200000E-03    9.9999953E-25
 -3.0850000E-03    9.9999972E-25
 -3.0499999E-03    1.0000009E-24
 -3.0149999E-03    1.0000008E-24
 -2.9800001E-03    9.9999972E-25
 -2.9450001E-03    9.9999982E-25
 -2.9100000E-03    1.0000002E-24
 -2.8750000E-03    9.9999963E-25
 -2.8400000E-03    9.9999943E-25
 -2.8049999E-03    1.0000000E-24
 -2.7699999E-03    1.0000007E-24
 -2.7350001E-03    1.0000006E-24
 -2.7000001E-03    1.0000000E-24
 -2.6650000E-03    9.9999992E-25
 -2.6300000E-03    9.9999982E-25
 -2.5950000E-03    1.0000000E-24
 -2.5599999E-03    1.0000006E-24
 -2.5249999E-03    1.0000005E-24
 -2.4900001E-03    1.0000000E-24
 -2.4550001E-03    1.0000001E-24
 -2.4200000E-03    1.0000002E-24
 -2.3850000E-03    1.0000001E-24
 -2.3500000E-03    9.9999982E-25
 -2.3149999E-03    9.9999992E-25
 -2.2799999E-03    1.0000000E-24
 -2.2450001E-03    9.9999982E-25
 -2.2100001E-03    1.0000003E-24
 -2.1750000E-03    1.0000002E-24
 -2.1400000E-03    9.9999943E-25
 -2.1050000E-03    1.0000021E-24
 -2.0699999E-03    1.0000013E-24
 -2.0349999E-03    9.9999322E-25
 -2.0000001E-03    1.0000039E-24
 -1.9650001E-03    1.0000156E-24
 -1.9300000E-03    9.9997261E-25
 -1.8950000E-03    9.9996777E-25
 -1.8600000E-03    1.0000667E-24
 -1.8250000E-03    1.0000292E-24
 -1.7900000E-03    9.9982647E-25
 -1.7550000E-03    1.0000566E-24
 -1.7199999E-03    1.0003069E-24
 -1.6850000E-03    9.9971840E-25
 -1.6500000E-03    9.9955066E-25
 -1.6150000E-03    1.0004921E-24
 -1.5800000E-03    1.0001566E-24
 -1.5450000E-03    9.9906670E-25
 -1.5100000E-03    1.0008236E-24
 -1.4750001E-03    1.0014960E-24
 -1.4400000E-03    9.9731069E-25
 -1.4050000E-03    1.0009006E-24
 -1.3700000E-03    1.0076228E-24
 -1.3350000E-03    9.8910733E-25
 -1.3000000E-03    9.9278589E-25
 -1.2650000E-03    1.0346700E-24
 -1.2300001E-03    9.9747645E-25
 -1.1950000E-03    9.2606403E-25
 -1.1600000E-03    1.0337992E-24
 -1.1250000E-03    1.1384143E-24
 -1.0900000E-03    8.6030242E-25
 -1.0550000E-03    7.7567125E-25
 -1.0200000E-03    1.3375726E-24
 -9.8500005E-04    1.2704419E-24
 -9.5000002E-04    2.5180097E-25
 -9.1499998E-04    8.0169523E-25
 -8.8000001E-04    2.3397362E-24
 -8.4499997E-04    7.7966195E-25
 -8.1000000E-04   -1.3514204E-24
 -7.7500002E-04    2.0876520E-24
 -7.3999999E-04    4.6252374E-24
 -7.0500001E-04   -1.5574606E-24
 -6.6999998E-04   -3.2083860E-24
 -6.3500000E-04    6.2920039E-24
 -6.0000003E-04    5.1092963E-24
 -5.6499999E-04   -7.9516950E-24
 -5.3000002E-04   -9.3444242E-25
 -4.9499999E-04    1.4618605E-23
 -4.6000001E-04   -2.3843382E-24
 -4.2500001E-04   -1.3216147E-23
 -3.9000000E-04    1.6521319E-23
 -3.5500000E-04    1.1213446E-23
 -3.1999999E-04   -3.2693889E-23
 -2.8499999E-04    7.1038108E-24
 -2.5000001E-04    5.5900741E-23
 -2.1499999E-04   -4.1617809E-23
 -1.8000000E-04   -8.0316630E-23
 -1.4500000E-04    1.2445063E-22
 -1.1000000E-04    1.1807079E-22
 -7.5000004E-05   -2.3681907E-22
 -3.9999999E-05   -9.0724974E-23
 -4.9999999E-06    4.2170439E-22
  2.9999999E-05    2.6560568E-23
  6.5000000E-05   -6.3752123E-22
  9.9999997E-05    3.8256412E-23
  1.3499999E-04    9.0983829E-22
  1.7000000E-04   -9.1479479E-23
  2.0500000E-04   -1.1778325E-21
  2.3999999E-04    3.4234678E-22
  2.7500000E-04    1.4941004E-21
  3.1000000E-04   -7.2165652E-22
  3.4500001E-04   -1.6787686E-21
  3.8000001E-04    8.9956810E-22
  4.1499999E-04    1.6947345E-21
  4.4999999E-04   -1.1698493E-21
  4.8500000E-04   -1.8562119E-21
  5.2000000E-04    1.0254168E-21
  5.5499998E-04    1.0668985E-21
  5.9000001E-04   -1.5836469E-21
  6.2499999E-04   -7.9833516E-22
  6.6000002E-04   -5.8212598E-22
  6.9500000E-04   -2.5491855E-21
  7.3000003E-04    1.8340890E-21
  7.6500000E-04    6.5504045E-21
  7.9999998E-04   -4.4310195E-21
  8.3500001E-04   -1.1897004E-20
  8.6999999E-04    1.0226234E-20
  9.0500002E-04    1.6976523E-20
  9.4000000E-04   -1.7861149E-20
  9.7499997E-04   -3.5118880E-20
  1.0100000E-03    2.4945801E-20
  1.0450000E-03    5.7621279E-20
  1.0800000E-03   -2.7158000E-20
  1.1150000E-03   -9.1488793E-20
  1.1500000E-03    2.4574518E-20
  1.1849999E-03    1.4692461E-19
  1.2200000E-03   -2.2085646E-20
  1.2550000E-03   -2.0353107E-19
  1.2900000E-03   -4.1467820E-21
  1.3250000E-03    2.6900826E-19
  1.3600000E-03    6.4519274E-20
  1.3950000E-03   -3.2998018E-19
  1.4299999E-03   -2.1937510E-19
  1.4650000E-03    3.5288388E-19
  1.5000000E-03    4.5297424E-19
  1.5350000E-03   -2.9971178E-19
  1.5700000E-03   -7.4405232E-19
  1.6050000E-03    1.2879989E-19
  1.6400000E-03    1.1732925E-18
  1.6749999E-03    2.2378860E-19
  1.7100000E-03   -1.5977161E-18
  1.7450000E-03   -9.8978871E-19
  1.7800000E-03    1.8633083E-18
  1.8150000E-03    2.1680445E-18
  1.8500000E-03   -1.7108152E-18
  1.8850000E-03   -3.6014422E-18
  1.9200000E-03    9.7488839E-19
  1.9550000E-03    5.6385246E-18
  1.9900000E-03    9.7274196E-19
  2.0250001E-03   -7.6705120E-18
  2.0600001E-03   -4.3754455E-18
  2.0949999E-03    9.3751435E-18
  2.1299999E-03    9.3248104E-18
  2.1650000E-03   -1.0262981E-17
  2.2000000E-03   -1.7098217E-17
  2.2350000E-03    9.3519328E-18
  2.2700001E-03    2.7207348E-17
  2.3050001E-03   -5.2701989E-18
  2.3399999E-03   -3.8313706E-17
  2.3749999E-03   -3.1514192E-18
  2.4100000E-03    4.9228867E-17
  2.4450000E-03    1.6524071E-17
  2.4800000E-03   -5.9738719E-17
  2.5150001E-03   -3.7137190E-17
  2.5500001E-03    6.4085004E-17
  2.5849999E-03    6.0828037E-17
  2.6199999E-03   -5.7556623E-17
  2.6550000E-03   -8.7463530E-17
  2.6900000E-03    3.9779456E-17
  2.7250000E-03    1.1710414E-16
  2.7600001E-03    4.9301503E-20
  2.7950001E-03   -1.3764708E-16
  2.8299999E-03   -6.2183667E-17
  2.8649999E-03    1.4382860E-16
  2.9000000E-03    1.5138001E-16
  2.9350000E-03   -1.1979895E-16
  2.9700000E-03   -2.6538561E-16
  3.0050001E-03    4.5013511E-17
  3.0400001E-03    3.9394332E-16
  3.0749999E-03    8.3628297E-17
  3.1099999E-03   -5.3163721E-16
  3.1450000E-03   -2.9729300E-16
  3.1800000E-03    6.4644067E-16
  3.2150000E-03    5.8992483E-16
  3.2500001E-03   -7.0739872E-16
  3.2850001E-03   -9.7559434E-16
  3.3199999E-03    6.6904136E-16
  3.3549999E-03    1.4307094E-15
  3.3900000E-03   -4.7635042E-16
  3.4250000E-03   -1.9024760E-15
  3.4600000E-03    8.5858959E-17
  3.4950001E-03    2.3103198E-15
  3.5300001E-03    5.4057584E-16
  3.5649999E-03   -2.5062345E-15
  3.5999999E-03   -1.3682788E-15
  3.6350000E-03    2.3474707E-15
  3.6700000E-03    2.3423580E-15
  3.7050000E-03   -1.6436570E-15
  3.7400001E-03   -3.2886048E-15
  3.7750001E-03    2.6480495E-16
  3.8099999E-03    3.9884749E-15
  3.8449999E-03    1.9368469E-15
  3.8800000E-03   -4.0543516E-15
  3.9149998E-03   -4.9412442E-15
  3.9499998E-03    3.0059480E-15
  3.9849998E-03    8.4947943E-15
  4.0199999E-03   -3.6412379E-16
  4.0549999E-03   -1.2045591E-14
  4.0899999E-03   -4.1867720E-15
  4.1250000E-03    1.4774816E-14
  4.1600000E-03    1.0660124E-14
  4.1950000E-03   -1.5668117E-14
  4.2300001E-03   -1.8619455E-14
  4.2650001E-03    1.3673588E-14
  4.3000001E-03    2.7145493E-14
  4.3350002E-03   -7.8020120E-15
  4.3700002E-03   -3.4628093E-14
  4.4049998E-03   -2.4893993E-15
  4.4399998E-03    3.8782007E-14
  4.4749998E-03    1.6864470E-14
  4.5099999E-03   -3.6886469E-14
  4.5449999E-03   -3.3477378E-14
  4.5799999E-03    2.6766012E-14
  4.6150000E-03    4.9281427E-14
  4.6500000E-03   -7.3371535E-15
  4.6850001E-03   -6.0373669E-14
  4.7200001E-03   -2.0838828E-14
  4.7550001E-03    6.2746534E-14
  4.7900002E-03    5.5752772E-14
  4.8250002E-03   -5.2288313E-14
  4.8600002E-03   -9.3336634E-14
  4.8949998E-03    2.5409723E-14
  4.9299998E-03    1.2666971E-13
  4.9649999E-03    1.9012359E-14
  4.9999999E-03   -1.4643435E-13
  5.0349999E-03   -7.7373519E-14
  5.0700000E-03    1.4351915E-13
  5.1050000E-03    1.4068267E-13
  5.1400000E-03   -1.1254714E-13
  5.1750001E-03   -1.9694118E-13
  5.2100001E-03    5.3197311E-14
  5.2450001E-03    2.3404382E-13
  5.2800002E-03    3.1082111E-14
  5.3150002E-03   -2.3948668E-13
  5.3500002E-03   -1.3202998E-13
  5.3849998E-03    2.0086222E-13
  5.4199998E-03    2.3349036E-13
  5.4549999E-03   -1.1112723E-13
  5.4899999E-03   -3.1105245E-13
  5.5249999E-03   -2.2790728E-14
  5.5600000E-03    3.4162357E-13
  5.5950000E-03    1.7948453E-13
  5.6300000E-03   -3.1358030E-13
  5.6650001E-03   -3.3160776E-13
  5.7000001E-03    2.2874760E-13
  5.7350001E-03    4.5381941E-13
  5.7700002E-03   -9.7250739E-14
  5.8050002E-03   -5.2272683E-13
  5.8400002E-03   -6.2807012E-14
  5.8749998E-03    5.1577232E-13
  5.9099998E-03    2.1888742E-13
  5.9449999E-03   -4.2068204E-13
  5.9799999E-03   -3.2386596E-13
  6.0149999E-03    2.5048878E-13
  6.0500000E-03    3.3090644E-13
  6.0850000E-03   -4.9118224E-14
  6.1200000E-03   -2.1747406E-13
  6.1550001E-03   -1.2490894E-13
  6.1900001E-03   -6.0119146E-15
  6.2250001E-03    2.1947099E-13
  6.2600002E-03    3.0477622E-13
  6.2950002E-03   -1.9595331E-13
  6.3299998E-03   -6.2517065E-13
  6.3649998E-03    3.1310935E-14
  6.3999998E-03    8.8927325E-13
  6.4349999E-03    2.6227756E-13
  6.4699999E-03   -1.0037381E-12
  6.5049999E-03   -6.1052850E-13
  6.5400000E-03    9.0277682E-13
  6.5750000E-03    8.8281314E-13
  6.6100000E-03   -5.9656474E-13
  6.6450001E-03   -9.4081210E-13
  6.6800001E-03    1.8373287E-13
  6.7150001E-03    7.0024422E-13
  6.7500002E-03    1.8073357E-13
  6.7850002E-03   -1.7016134E-13
  6.8199998E-03   -3.4954911E-13
  6.8549998E-03   -5.5903730E-13
  6.8899998E-03    2.3069602E-13
  6.9249999E-03    1.3738762E-12
  6.9599999E-03    2.4722905E-13
  6.9949999E-03   -2.1097876E-12
  7.0300000E-03   -1.1158200E-12
  7.0650000E-03    2.5051053E-12
  7.1000000E-03    2.2305007E-12
  7.1350001E-03   -2.3183708E-12
  7.1700001E-03   -3.1944855E-12
  7.2050001E-03    1.6334267E-12
  7.2400002E-03    3.7108090E-12
  7.2750002E-03   -7.1708731E-13
  7.3099998E-03   -3.7184661E-12
  7.3449998E-03   -2.5536146E-13
  7.3799998E-03    3.1652612E-12
  7.4149999E-03    1.1228647E-12
  7.4499999E-03   -1.8914098E-12
  7.4850000E-03   -1.3818414E-12
  7.5200000E-03    1.7805896E-13
  7.5550000E-03    6.3640179E-13
  7.5900001E-03    1.2908115E-12
  7.6250001E-03    9.4729281E-13
  7.6600001E-03   -2.0118841E-12
  7.6950002E-03   -2.9612608E-12
  7.7300002E-03    1.7211447E-12
  7.7650002E-03    4.9736439E-12
  7.7999998E-03   -1.4880970E-13
  7.8349998E-03   -6.1335910E-12
  7.8699999E-03   -2.3040192E-12
  7.9049999E-03    5.7180007E-12
  7.9399999E-03    4.5111610E-12
  7.9750000E-03   -4.1392415E-12
  8.0100000E-03   -5.9697221E-12
  8.0450000E-03    2.0667424E-12
  8.0800001E-03    7.1331643E-12
  8.1150001E-03    1.1070405E-12
  8.1500001E-03   -6.9785362E-12
  8.1850002E-03   -4.7295015E-12
  8.2200002E-03    4.8298522E-12
  8.2550002E-03    7.1526539E-12
  8.2900003E-03   -1.8494652E-12
  8.3250003E-03   -7.5056480E-12
  8.3600003E-03    5.0100988E-13
  8.3950004E-03    8.6371413E-12
  8.4300004E-03    1.1921574E-12
  8.4650004E-03   -9.9479877E-12
  8.5000005E-03   -4.0694574E-12
  8.5349996E-03    9.6212092E-12
  8.5699996E-03    6.9315495E-12
  8.6049996E-03   -7.1279172E-12
  8.6399997E-03   -7.3754735E-12
  8.6749997E-03    5.8273694E-12
  8.7099997E-03    8.9229388E-12
  8.7449998E-03   -2.2376974E-12
  8.7799998E-03   -9.1863045E-12
  8.8149998E-03   -3.6076326E-12
  8.8499999E-03    5.5415117E-12
  8.8849999E-03    8.8912254E-12
  8.9199999E-03    2.7434251E-12
  8.9550000E-03   -7.4492704E-12
  8.9900000E-03   -6.0008409E-12
  9.0250000E-03    9.5445500E-12
  9.0600001E-03    1.2308205E-11
  9.0950001E-03   -1.0935941E-11
  9.1300001E-03   -2.1182448E-11
  9.1650002E-03    8.7241612E-12
  9.2000002E-03    3.0578380E-11
  9.2350002E-03    1.3072021E-14
  9.2700003E-03   -3.0295794E-11
  9.3050003E-03    1.7656613E-13
  9.3400003E-03    3.7572716E-11
  9.3750004E-03    8.6609903E-12
  9.4100004E-03   -3.9913468E-11
  9.4450004E-03   -1.6686539E-11
  9.4799995E-03    4.3588140E-11
  9.5149996E-03    3.5330530E-11
  9.5499996E-03   -2.4834407E-11
  9.5849996E-03   -2.8717565E-11
  9.6199997E-03    2.2764362E-11
  9.6549997E-03    3.0572780E-11
  9.6899997E-03   -1.4102375E-11
  9.7249998E-03   -2.3837592E-11
  9.7599998E-03    9.8443207E-12
  9.7949998E-03    2.1445278E-11
  9.8299999E-03    8.8879060E-12
  9.8649999E-03    1.3171612E-11
  9.8999999E-03    1.1014597E-11
  9.9350000E-03   -1.5387953E-11
  9.9700000E-03   -1.0557969E-11
  1.0005000E-02    2.7373952E-11
  1.0040000E-02    2.3397262E-11
  1.0075000E-02   -1.9364167E-11
  1.0110000E-02   -9.4320567E-12
  1.0145000E-02    4.9592195E-11
  1.0180000E-02    4.7227760E-11
  1.0215000E-02   -2.5228156E-11
  1.0250000E-02   -4.0024789E-11
  1.0285000E-02    2.3900212E-11
  1.0320000E-02    5.0802165E-11
  1.0355000E-02    2.4002339E-12
  1.0390000E-02   -1.6903744E-11
  1.0425000E-02    3.4682129E-11
  1.0460000E-02    5.7094801E-11
  1.0495000E-02    3.2013944E-12
  1.0530000E-02   -2.0551430E-11
  1.0565000E-02    2.0214540E-11
  1.0600000E-02    3.3071733E-11
  1.0635000E-02    1.8396647E-12
  1.0670000E-02   -5.2859362E-12
  1.0705000E-02    3.6841821E-11
  1.0740000E-02    6.0422188E-11
  1.0775000E-02    1.2202275E-11
  1.0810000E-02   -2.7229656E-11
  1.0845000E-02    2.0064853E-11
  1.0880000E-02    5.9824035E-11
  1.0915000E-02    1.8299117E-11
  1.0950000E-02   -3.7597064E-11
  1.0985000E-02   -2.2341733E-11
  1.1020000E-02    3.5196842E-11
  1.1055000E-02    7.4981986E-11
  1.1090000E-02    6.1731814E-11
  1.1125000E-02   -1.5142904E-11
  1.1160000E-02   -3.9513896E-11
  1.1195000E-02    5.0265632E-11
  1.1230000E-02    9.3761748E-11
  1.1265000E-02    2.8639547E-12
  1.1300000E-02   -6.8443834E-11
  1.1335000E-02   -2.8831684E-11
  1.1370000E-02    5.3825718E-11
  1.1405000E-02    8.9640656E-11
  1.1440000E-02    1.5077599E-11
  1.1475000E-02   -9.8632033E-11
  1.1510000E-02   -6.4583089E-11
  1.1545000E-02    7.2428993E-11
  1.1580000E-02    9.0287916E-11
  1.1615000E-02   -4.0707517E-11
  1.1650000E-02   -9.4650461E-11
  1.1685000E-02    1.2656959E-11
  1.1720000E-02    1.1422477E-10
  1.1755000E-02    4.3757057E-11
  1.1790000E-02   -1.2433604E-10
  1.1825000E-02   -1.3472862E-10
  1.1860000E-02    3.5226853E-11
  1.1895000E-02    8.0742101E-11
  1.1930000E-02   -7.3504973E-11
  1.1965000E-02   -1.1734602E-10
  1.2000000E-02   -7.7444100E-13
  1.2035000E-02   -1.7065870E-11
  1.2070000E-02   -9.3581545E-11
  1.2105000E-02   -2.2749861E-11
  1.2140000E-02   -1.2601846E-11
  1.2175000E-02   -1.1457760E-10
  1.2210000E-02   -6.8233037E-11
  1.2245000E-02    3.3242627E-11
  1.2280000E-02   -2.2796690E-11
  1.2315000E-02   -9.1992122E-11
  1.2350000E-02   -1.1017913E-10
  1.2385000E-02   -9.8240346E-11
  1.2420000E-02    6.4360375E-12
  1.2455000E-02   -2.0843320E-11
  1.2490000E-02   -2.2600911E-10
  1.2525000E-02   -1.4434648E-10
  1.2560000E-02    6.9564215E-11
  1.2595000E-02   -7.1921247E-11
  1.2630000E-02   -1.3725819E-10
  1.2665000E-02    7.6993065E-11
  1.2700000E-02   -4.6190177E-11
  1.2735000E-02   -2.4271093E-10
  1.2770000E-02   -2.9954473E-11
  1.2805000E-02   -1.4080112E-11
  1.2840000E-02   -2.2096881E-10
  1.2875000E-02   -2.2464003E-11
  1.2910000E-02    1.1800576E-10
  1.2945000E-02   -8.4707422E-11
  1.2980000E-02   -3.3187068E-11
  1.3015000E-02   -1.2000502E-11
  1.3050000E-02   -2.8064220E-10
  1.3085000E-02   -1.5309402E-10
  1.3120000E-02    7.5755374E-11
  1.3155000E-02   -1.5791636E-10
  1.3190000E-02   -1.3304002E-10
  1.3225000E-02    1.2778768E-10
  1.3260000E-02   -3.6779572E-11
  1.3295000E-02    2.7539854E-11
  1.3330000E-02    3.5529457E-10
  1.3365000E-02   -2.7719270E-11
  1.3400000E-02   -4.0435100E-10
  1.3435000E-02    2.3543417E-11
  1.3470000E-02    2.1929725E-10
  1.3505000E-02   -1.6588444E-11
  1.3540000E-02    6.3380530E-11
  1.3575000E-02    3.5506636E-11
  1.3610000E-02   -1.7415161E-10
  1.3645000E-02    1.0974083E-10
  1.3680000E-02    2.8276959E-10
  1.3715000E-02   -1.1886465E-10
  1.3750000E-02   -1.3649643E-10
  1.3785000E-02    2.8394118E-10
  1.3820000E-02    2.7493277E-10
  1.3855000E-02    6.5283619E-11
  1.3890000E-02    9.4812359E-11
  1.3925000E-02    1.5140346E-10
  1.3960000E-02    2.5528049E-10
  1.3995000E-02    2.6248514E-10
  1.4030000E-02   -1.4499996E-10
  1.4065000E-02   -2.7627001E-10
  1.4100000E-02    2.8385075E-10
  1.4135000E-02    4.4357268E-10
  1.4170000E-02   -8.0924933E-11
  1.4205000E-02   -1.2509746E-10
  1.4240000E-02    3.3298286E-10
  1.4275000E-02    3.9040071E-10
  1.4310000E-02    1.9936057E-10
  1.4345000E-02    9.3558106E-11
  1.4380000E-02   -3.0515954E-11
  1.4415000E-02    1.3079697E-10
  1.4450000E-02    4.2717960E-10
  1.4485000E-02    1.7929666E-10
  1.4520000E-02   -1.2622753E-10
  1.4555000E-02    1.1961174E-10
  1.4590000E-02    2.2859117E-10
  1.4625000E-02    5.4127043E-11
  1.4660000E-02    1.1175182E-10
  1.4695000E-02    4.1945405E-12
  1.4730000E-02   -2.5530611E-10
  1.4765000E-02    1.1235197E-10
  1.4800000E-02    4.6560669E-10
  1.4835000E-02    8.8728171E-11
  1.4870000E-02    2.6903316E-11
  1.4905000E-02    4.4329393E-10
  1.4940000E-02    2.1184005E-10
  1.4975000E-02   -2.1801433E-10
  1.5010000E-02    3.2254567E-11
  1.5045000E-02    1.4187011E-10
  1.5080000E-02   -2.5193989E-10
  1.5115000E-02   -3.1110856E-10
  1.5150000E-02   -9.3582357E-11
  1.5185000E-02   -6.7711232E-11
  1.5220000E-02    1.5682505E-10
  1.5255000E-02    4.2075157E-10
  1.5290000E-02    2.7987839E-11
  1.5325000E-02   -3.4430500E-10
  1.5360000E-02   -1.5959147E-11
  1.5395000E-02    1.3124980E-10
  1.5430000E-02   -3.1882397E-10
  1.5465000E-02   -4.9111781E-10
  1.5500000E-02   -8.0761141E-11
  1.5535000E-02    2.8248998E-10
  1.5570000E-02    1.7588803E-10
  1.5605000E-02   -2.0884956E-10
  1.5640000E-02   -2.2761570E-10
  1.5675001E-02    3.1188972E-11
  1.5710000E-02   -9.5322736E-11
  1.5745001E-02   -2.4421096E-10
  1.5780000E-02    2.0628813E-11
  1.5814999E-02   -2.4737082E-10
  1.5850000E-02   -5.7153005E-10
  1.5884999E-02    2.6842641E-11
  1.5920000E-02    1.9800360E-10
  1.5954999E-02   -2.9200323E-10
  1.5990000E-02   -1.5973912E-10
  1.6024999E-02   -3.0393452E-10
  1.6060000E-02   -7.3923601E-10
  1.6094999E-02    4.5485841E-11
  1.6130000E-02    5.4624116E-10
  1.6164999E-02   -4.5851295E-10
  1.6200000E-02   -4.3776310E-10
  1.6235000E-02    3.9198170E-10
  1.6270000E-02   -2.1929229E-10
  1.6305000E-02   -3.8796166E-10
  1.6340001E-02    4.5269657E-10
  1.6375000E-02   -3.0341210E-10
  1.6410001E-02   -9.1624819E-10
  1.6445000E-02    5.1408905E-10
  1.6480001E-02    3.4735559E-10
  1.6515000E-02   -1.2112896E-09
  1.6550001E-02   -1.5519548E-10
  1.6585000E-02    1.1598170E-09
  1.6620001E-02   -1.6267833E-10
  1.6655000E-02   -6.6314998E-10
  1.6690001E-02    2.3575575E-10
  1.6725000E-02   -3.2599784E-10
  1.6759999E-02   -9.5718566E-10
  1.6795000E-02    1.6802722E-11
  1.6829999E-02    2.5771724E-10
  1.6865000E-02   -4.2766463E-10
  1.6899999E-02    3.3464931E-10
  1.6935000E-02    6.3200561E-10
  1.6969999E-02   -6.4205880E-10
  1.7005000E-02   -2.3111593E-10
  1.7039999E-02    8.9718277E-10
  1.7075000E-02    1.3348826E-10
  1.7109999E-02   -4.6327245E-10
  1.7145000E-02    2.2985331E-11
  1.7180000E-02   -5.0223803E-10
  1.7215000E-02   -5.0526144E-10
  1.7250000E-02    8.9043262E-10
  1.7285001E-02    2.9942224E-10
  1.7320000E-02   -7.0546036E-10
  1.7355001E-02    4.3805271E-10
  1.7390000E-02    3.9329129E-10
  1.7425001E-02   -1.0597472E-09
  1.7460000E-02    3.8372520E-11
  1.7495001E-02    6.6511313E-10
  1.7530000E-02   -9.9896869E-10
  1.7565001E-02    1.6212646E-11
  1.7600000E-02    1.3974943E-09
  1.7635001E-02   -9.9247977E-10
  1.7670000E-02   -1.4029097E-09
  1.7704999E-02    1.2851858E-09
  1.7740000E-02    2.2592481E-10
  1.7774999E-02   -7.5789913E-10
  1.7810000E-02    1.8788862E-09
  1.7844999E-02    1.7368486E-09
  1.7880000E-02   -1.4431280E-09
  1.7914999E-02   -8.3339929E-10
  1.7950000E-02    1.0932619E-09
  1.7984999E-02    3.0883385E-10
  1.8020000E-02   -8.7288071E-10
  1.8054999E-02   -8.5619617E-10
  1.8090000E-02   -2.1125378E-10
  1.8124999E-02    6.8609896E-10
  1.8160000E-02   -2.5891284E-10
  1.8195000E-02   -8.4039015E-10
  1.8230001E-02    2.0624809E-09
  1.8265000E-02    1.9706259E-09
  1.8300001E-02   -1.9049364E-09
  1.8335000E-02   -1.5852081E-09
  1.8370001E-02    2.2727389E-09
  1.8405000E-02    7.8189488E-10
  1.8440001E-02   -9.3039704E-10
  1.8475000E-02   -2.5956168E-10
  1.8510001E-02   -6.8939254E-10
  1.8545000E-02   -2.3966110E-10
  1.8580001E-02    2.9805836E-10
  1.8615000E-02   -8.7725116E-10
  1.8650001E-02    6.0111888E-10
  1.8685000E-02    3.3097791E-09
  1.8719999E-02   -4.7530346E-10
  1.8755000E-02   -3.7391081E-09
  1.8789999E-02    1.3829282E-10
  1.8825000E-02    6.7242295E-10
  1.8859999E-02   -9.2446756E-10
  1.8895000E-02    2.8987492E-09
  1.8929999E-02    4.0200900E-09
  1.8965000E-02   -2.8366007E-09
  1.8999999E-02   -2.8735458E-09
  1.9035000E-02    1.5930872E-09
  1.9069999E-02    1.6856375E-09
  1.9105000E-02    5.8562571E-10
  1.9140000E-02   -1.3641782E-09
  1.9175000E-02   -3.0912735E-09
  1.9210000E-02   -1.0799858E-09
  1.9245001E-02    1.8428443E-11
  1.9280000E-02    1.1065945E-09
  1.9315001E-02    5.3845399E-09
  1.9350000E-02    3.4041363E-09
  1.9385001E-02   -5.3005866E-09
  1.9420000E-02   -3.7247794E-09
  1.9455001E-02    2.8301541E-09
  1.9490000E-02    1.0449928E-09
  1.9525001E-02   -2.1772584E-09
  1.9560000E-02    8.8796875E-10
  1.9595001E-02    1.9290229E-09
  1.9630000E-02   -2.2428024E-09
  1.9664999E-02   -3.5989602E-09
  1.9700000E-02    1.2296547E-09
  1.9734999E-02    5.9326188E-09
  1.9770000E-02    3.0460729E-09
  1.9804999E-02   -7.4018047E-10
  1.9840000E-02   -4.8314998E-11
  1.9874999E-02   -2.9992306E-09
  1.9910000E-02   -5.7359810E-09
  1.9944999E-02    2.2300355E-09
  1.9980000E-02    5.6887401E-09
  2.0014999E-02   -3.0604124E-09
  2.0050000E-02   -3.4839920E-09
  2.0085000E-02    3.8812056E-09
  2.0120000E-02    7.5351481E-10
  2.0155000E-02   -3.0542269E-09
  2.0190001E-02    9.4724006E-10
  2.0225000E-02    4.3938009E-10
  2.0260001E-02   -2.8244567E-09
  2.0295000E-02   -6.2814537E-10
  2.0330001E-02    8.5525464E-10
  2.0365000E-02    3.2525349E-10
  2.0400001E-02    4.8997040E-10
  2.0435000E-02    2.4309585E-10
  2.0470001E-02    5.5889984E-11
  2.0505000E-02    6.8194822E-10
  2.0540001E-02    1.9103087E-10
  2.0575000E-02    4.1167739E-10
  2.0609999E-02   -1.2713509E-10
  2.0645000E-02   -5.2055749E-10
  2.0679999E-02    1.1154127E-09
  2.0715000E-02    6.6167821E-10
  2.0749999E-02   -1.8802180E-09
  2.0785000E-02   -7.3928791E-10
  2.0819999E-02    1.4932331E-09
  2.0855000E-02    8.7996899E-10
  2.0889999E-02    1.3284814E-09
  2.0925000E-02    1.7526579E-09
  2.0959999E-02   -2.1450610E-09
  2.0995000E-02   -1.8053041E-09
  2.1029999E-02    3.4285075E-09
  2.1065000E-02    4.3448760E-09
  2.1100000E-02   -1.0302763E-09
  2.1135001E-02   -4.0263157E-09
  2.1170000E-02    4.2572312E-10
  2.1205001E-02    2.8988030E-09
  2.1240000E-02   -1.5566013E-09
  2.1275001E-02   -1.4647094E-09
  2.1310000E-02    4.1940185E-09
  2.1345001E-02   -1.6861700E-09
  2.1380000E-02   -9.7825605E-09
  2.1415001E-02   -4.9828665E-11
  2.1450000E-02    7.9665039E-09
  2.1485001E-02   -2.6077527E-09
  2.1520000E-02   -5.0572231E-09
  2.1555001E-02    7.1390009E-09
  2.1590000E-02    4.7567168E-09
  2.1624999E-02   -5.2511244E-09
  2.1660000E-02    1.4024337E-09
  2.1694999E-02    6.9779085E-09
  2.1730000E-02   -2.9599898E-09
  2.1764999E-02   -7.1761965E-09
  2.1800000E-02    1.0278159E-10
  2.1834999E-02    2.3152491E-09
  2.1870000E-02   -2.2912054E-09
  2.1904999E-02   -3.6920724E-09
  2.1940000E-02    1.2753333E-09
  2.1974999E-02    3.8513375E-09
  2.2010000E-02   -6.1675809E-10
  2.2045000E-02   -1.6505760E-09
  2.2080000E-02    5.3459259E-09
  2.2115000E-02    3.7671350E-09
  2.2150001E-02   -5.6009437E-09
  2.2185000E-02   -8.1251439E-10
  2.2220001E-02    8.7232550E-09
  2.2255000E-02    1.4733348E-09
  2.2290001E-02   -5.8435305E-09
  2.2325000E-02    2.4722706E-09
  2.2360001E-02    5.6852310E-09
  2.2395000E-02   -3.3685195E-09
  2.2430001E-02   -3.7225407E-09
  2.2465000E-02    5.0662368E-09
  2.2500001E-02    2.2568025E-09
  2.2535000E-02   -6.6456773E-09
  2.2569999E-02   -2.8629543E-10
  2.2605000E-02    8.1887670E-09
  2.2639999E-02   -8.6214458E-10
  2.2675000E-02   -5.7403398E-09
  2.2709999E-02    5.1292526E-09
  2.2745000E-02    4.0151598E-09
  2.2779999E-02   -7.5658164E-09
  2.2815000E-02   -3.8501815E-09
  2.2849999E-02    4.1319232E-09
  2.2885000E-02    2.4468028E-09
  2.2919999E-02    5.9419641E-10
  2.2955000E-02   -2.3859532E-09
  2.2990000E-02   -6.3680483E-09
  2.3025000E-02   -1.3850561E-09
  2.3060000E-02    3.1532190E-09
  2.3095001E-02    2.0176718E-09
  2.3130000E-02    4.3818100E-09
  2.3165001E-02    2.9298795E-09
  2.3200000E-02   -5.1844884E-09
  2.3235001E-02   -3.4149306E-09
  2.3270000E-02    3.2178020E-09
  2.3305001E-02   -4.1667944E-10
  2.3340000E-02   -3.7177637E-09
  2.3375001E-02    2.5041724E-09
  2.3410000E-02    6.3427641E-09
  2.3445001E-02    5.9091045E-11
  2.3480000E-02   -6.7456702E-09
  2.3514999E-02   -3.0853551E-09
  2.3550000E-02    2.7154072E-09
  2.3584999E-02   -7.5584689E-10
  2.3620000E-02   -1.7698225E-09
  2.3654999E-02    5.1194697E-09
  2.3690000E-02    3.0724787E-09
  2.3724999E-02   -4.6533368E-09
  2.3760000E-02   -1.1594994E-09
  2.3794999E-02    4.2245683E-09
  2.3830000E-02    1.3677260E-09
  2.3864999E-02   -2.0489906E-10
  2.3900000E-02    8.9446905E-10
  2.3934999E-02   -1.4659216E-09
  2.3970000E-02   -3.1844603E-09
  2.4005000E-02   -3.5877215E-10
  2.4040001E-02    2.6153051E-09
  2.4075000E-02    1.9993773E-09
  2.4110001E-02   -3.1302347E-10
  2.4145000E-02   -1.0313199E-09
  2.4180001E-02   -1.8534183E-09
  2.4215000E-02   -2.6192666E-09
  2.4250001E-02    3.7283050E-12
  2.4285000E-02    2.4885123E-09
  2.4320001E-02    1.9034903E-09
  2.4355000E-02    1.5340131E-09
  2.4390001E-02    4.7263171E-10
  2.4425000E-02   -1.6240380E-09
  2.4460001E-02   -4.4937890E-10
  2.4495000E-02    8.5129226E-10
  2.4529999E-02   -1.2058669E-09
  2.4565000E-02   -1.7062975E-09
  2.4599999E-02    5.8591082E-10
  2.4635000E-02    1.4182523E-09
  2.4669999E-02   -8.4646939E-10
  2.4705000E-02   -3.4771992E-09
  2.4739999E-02   -2.8196648E-10
  2.4775000E-02    3.8825441E-09
  2.4809999E-02   -2.0758988E-09
  2.4845000E-02   -7.5753981E-09
  2.4879999E-02   -1.1243282E-10
  2.4915000E-02    4.3504844E-09
  2.4950000E-02   -1.9479409E-09
  2.4985000E-02   -1.7216721E-09
  2.5020000E-02    3.9363743E-09
  2.5055001E-02    2.3033656E-10
  2.5090000E-02   -5.7752327E-09
  2.5125001E-02   -2.4008788E-09
  2.5160000E-02    1.8419998E-09
  2.5195001E-02   -7.2032647E-10
  2.5230000E-02   -8.2618667E-10
  2.5265001E-02    3.8775179E-09
  2.5300000E-02    1.1887428E-09
  2.5335001E-02   -6.6531425E-09
  2.5370000E-02   -4.0949706E-09
  2.5405001E-02    4.0529362E-09
  2.5440000E-02    1.7257320E-09
  2.5474999E-02   -4.1613526E-09
  2.5510000E-02   -8.2286405E-10
  2.5544999E-02    3.8516808E-09
  2.5580000E-02    3.5294814E-10
  2.5614999E-02   -2.6746731E-09
  2.5650000E-02   -1.6596714E-11
  2.5684999E-02   -6.2618544E-10
  2.5720000E-02   -3.8658881E-09
  2.5754999E-02   -1.2751350E-09
  2.5790000E-02    1.1929495E-09
  2.5824999E-02   -1.0477638E-09
  2.5860000E-02    2.0557733E-09
  2.5895000E-02    5.2218514E-09
  2.5930000E-02   -1.7695697E-09
  2.5965000E-02   -4.4839719E-09
  2.6000001E-02    1.5912122E-09
  2.6035000E-02   -2.2396446E-11
  2.6070001E-02   -2.0478164E-09
  2.6105000E-02    5.3059002E-09
  2.6140001E-02    3.0891767E-09
  2.6175000E-02   -7.1285875E-09
  2.6210001E-02   -2.2690136E-09
  2.6245000E-02    5.5977121E-09
  2.6280001E-02   -1.8931803E-09
  2.6315000E-02   -5.6885510E-09
  2.6350001E-02    3.6462107E-09
  2.6385000E-02    5.4823404E-09
  2.6419999E-02   -2.7997151E-09
  2.6455000E-02   -2.4477063E-09
  2.6489999E-02    4.9721152E-09
  2.6525000E-02    2.7869191E-09
  2.6559999E-02   -3.9169010E-09
  2.6595000E-02   -5.7898680E-10
  2.6629999E-02    4.2992263E-09
  2.6665000E-02    4.5007204E-10
  2.6699999E-02   -1.3659636E-09
  2.6735000E-02    2.3315070E-09
  2.6769999E-02    2.0909499E-09
  2.6805000E-02   -5.2269855E-10
  2.6839999E-02   -7.4629014E-10
  2.6875000E-02   -8.1026891E-10
  2.6910000E-02   -2.0752614E-10
  2.6945001E-02    8.1657514E-10
  2.6980000E-02   -6.0434613E-10