 -4.8000002E-03    1.0000000E-24
 -4.7650002E-03    1.0000002E-24
 -4.7300002E-03    1.0000001E-24
 -4.6950001E-03    1.0000000E-24
 -4.6600001E-03    1.0000003E-24
 -4.6250001E-03    1.0000002E-24
 -4.5900000E-03    9.9999992E-25
 -4.5550000E-03    1.0000001E-24
 -4.5200000E-03    1.0000000E-24
 -4.4849999E-03    9.9999992E-25
 -4.4499999E-03    1.0000002E-24
 -4.4149999E-03    1.0000002E-24
 -4.3799998E-03    9.9999963E-25
 -4.3449998E-03    9.9999972E-25
 -4.3100002E-03    1.0000005E-24
 -4.2750002E-03    1.0000002E-24
 -4.2400002E-03    9.9999992E-25
 -4.2050001E-03    1.0000004E-24
 -4.1700001E-03    1.0000006E-24
 -4.1350001E-03    9.9999953E-25
 -4.1000000E-03    9.9999933E-25
 -4.0650000E-03    1.0000004E-24
 -4.0300000E-03    1.0000002E-24
 -3.9949999E-03    9.9999953E-25
 -3.9599999E-03    1.0000003E-24
 -3.9249999E-03    1.0000007E-24
 -3.8900001E-03    9.9999963E-25
 -3.8550000E-03    9.9999953E-25
 -3.8200000E-03    1.0000005E-24
 -3.7849999E-03    1.0000002E-24
 -3.7499999E-03    9.9999972E-25
 -3.7150001E-03    1.0000005E-24
 -3.6800001E-03    1.0000007E-24
 -3.6450000E-03    9.9999963E-25
 -3.6100000E-03    9.9999953E-25
 -3.5750000E-03    1.0000000E-24
 -3.5399999E-03    9.9999992E-25
 -3.5049999E-03    9.9999992E-25
 -3.4700001E-03    1.0000006E-24
 -3.4350001E-03    1.0000005E-24
 -3.4000000E-03    1.0000001E-24
 -3.3650000E-03    9.9999982E-25
 -3.3300000E-03    1.0000000E-24
 -3.2949999E-03    9.9999982E-25
 -3.2599999E-03    9.9999982E-25
 -3.2250001E-03    1.0000001E-24
 -3.1900001E-03    1.0000000E-24
 -3.1550000E-03    1.0000001E-24
 -3.1200000E-03    1.0000004E-24
 -3.0850000E-03    1.0000004E-24
 -3.0499999E-03    9.9999982E-25
 -3.0149999E-03    9.9999982E-25
 -2.9800001E-03    1.0000005E-24
 -2.9450001E-03    1.0000002E-24
 -2.9100000E-03    9.9999943E-25
 -2.8750000E-03    1.0000001E-24
 -2.8400000E-03    1.0000007E-24
 -2.8049999E-03    1.0000000E-24
 -2.7699999E-03    9.9999963E-25
 -2.7350001E-03    1.0000006E-24
 -2.7000001E-03    1.0000004E-24
 -2.6650000E-03    9.9999903E-25
 -2.6300000E-03    9.9999913E-25
 -2.5950000E-03    1.0000007E-24
 -2.5599999E-03    1.0000007E-24
 -2.5249999E-03    1.0000000E-24
 -2.4900001E-03    1.0000004E-24
 -2.4550001E-03    1.0000008E-24
 -2.4200000E-03    9.9999963E-25
 -2.3850000E-03    9.9999943E-25
 -2.3500000E-03    1.0000006E-24
 -2.3149999E-03    9.9999963E-25
 -2.2799999E-03    9.9999893E-25
 -2.2450001E-03    1.0000008E-24
 -2.2100001E-03    9.9999844E-25
 -2.1750000E-03    9.9999844E-25
 -2.1400000E-03    1.0000103E-24
 -2.1050000E-03    9.9999529E-25
 -2.0699999E-03    9.9997113E-25
 -2.0349999E-03    1.0000474E-24
 -2.0000001E-03    1.0000434E-24
 -1.9650001E-03    9.9981267E-25
 -1.9300000E-03    1.0000569E-24
 -1.8950000E-03    1.0004884E-24
 -1.8600000E-03    9.9936459E-25
 -1.8250000E-03    9.9924666E-25
 -1.7900000E-03    1.0024583E-24
 -1.7550000E-03    9.9972895E-25
 -1.7199999E-03    9.9373449E-25
 -1.6850000E-03    1.0063933E-24
 -1.6500000E-03    1.0103188E-24
 -1.6150000E-03    9.7491986E-25
 -1.5800000E-03    9.9619830E-25
 -1.5450000E-03    1.0636699E-24
 -1.5100000E-03    9.5601619E-25
 -1.4750001E-03    8.8889192E-25
 -1.4400000E-03    1.1892247E-24
 -1.4050000E-03    1.0947141E-24
 -1.3700000E-03    5.1552647E-25
 -1.3350000E-03    1.1801626E-24
 -1.3000000E-03    1.8632889E-24
 -1.2650000E-03   -4.1924731E-26
 -1.2300001E-03    9.9110302E-26
 -1.1950000E-03    3.7523569E-24
 -1.1600000E-03    5.3363576E-25
 -1.1250000E-03   -3.8614426E-24
 -1.0900000E-03    5.8903427E-24
 -1.0550000E-03    6.0301967E-24
 -1.0200000E-03   -1.2466781E-23
 -9.8500005E-04    3.1428094E-24
 -9.5000002E-04    2.4611749E-23
 -9.1499998E-04   -2.3550691E-23
 -8.8000001E-04   -2.2941787E-23
 -8.4499997E-04    6.8230107E-23
 -8.1000000E-04   -9.2672516E-24
 -7.7500002E-04   -1.1828977E-22
 -7.3999999E-04    1.1531329E-22
 -7.0500001E-04    1.3480000E-22
 -6.6999998E-04   -3.1277421E-22
 -6.3500000E-04   -8.7844971E-24
 -6.0000003E-04    5.7913003E-22
 -5.6499999E-04   -4.0243188E-22
 -5.3000002E-04   -7.5026660E-22
 -4.9499999E-04    1.2538875E-21
 -4.6000001E-04    4.8411190E-22
 -4.2500001E-04   -2.5609162E-21
 -3.9000000E-04    7.9286080E-22
 -3.5500000E-04    4.0563213E-21
 -3.1999999E-04   -3.7794169E-21
 -2.8499999E-04   -4.9817360E-21
 -2.5000001E-04    9.1437870E-21
 -2.1499999E-04    4.0179551E-21
 -1.8000000E-04   -1.7231406E-20
 -1.4500000E-04    7.2216280E-22
 -1.1000000E-04    2.7851666E-20
 -7.5000004E-05   -1.1536520E-20
 -3.9999999E-05   -4.0078206E-20
 -4.9999999E-06    3.1044392E-20
  2.9999999E-05    5.2128977E-20
  6.5000000E-05   -6.2124715E-20
  9.9999997E-05   -6.0971321E-20
  1.3499999E-04    1.0792274E-19
  1.7000000E-04    6.1494158E-20
  2.0500000E-04   -1.7143882E-19
  2.3999999E-04   -4.4995653E-20
  2.7500000E-04    2.5430515E-19
  3.1000000E-04   -2.6745799E-21
  3.4500001E-04   -3.5429159E-19
  3.8000001E-04    1.0302798E-19
  4.1499999E-04    4.6188819E-19
  4.4999999E-04   -2.8660968E-19
  4.8500000E-04   -5.5662364E-19
  5.2000000E-04    5.9502353E-19
  5.5499998E-04    6.0401695E-19
  5.9000001E-04   -1.0841626E-18
  6.2499999E-04   -5.5309308E-19
  6.6000002E-04    1.8290996E-18
  6.9500000E-04    3.3398751E-19
  7.3000003E-04   -2.9288449E-18
  7.6500000E-04    1.4409985E-19
  7.9999998E-04    4.5064084E-18
  8.3500001E-04   -9.9128735E-19
  8.6999999E-04   -6.6972364E-18
  9.0500002E-04    2.3270299E-18
  9.4000000E-04    9.6200783E-18
  9.7499997E-04   -4.2605559E-18
  1.0100000E-03   -1.3327993E-17
  1.0450000E-03    6.8712144E-18
  1.0800000E-03    1.7740050E-17
  1.1150000E-03   -1.0211286E-17
  1.1500000E-03   -2.2548446E-17
  1.1849999E-03    1.4365307E-17
  1.2200000E-03    2.7086779E-17
  1.2550000E-03   -1.9606131E-17
  1.2900000E-03   -3.0155366E-17
  1.3250000E-03    2.6683293E-17
  1.3600000E-03    2.9857107E-17
  1.3950000E-03   -3.7244929E-17
  1.4299999E-03   -2.3572548E-17
  1.4650000E-03    5.4346458E-17
  1.5000000E-03    8.2474101E-18
  1.5350000E-03   -8.2970047E-17
  1.5700000E-03    1.8859720E-17
  1.6050000E-03    1.3047808E-16
  1.6400000E-03   -5.8836358E-17
  1.6749999E-03   -2.0678855E-16
  1.7100000E-03    1.0913023E-16
  1.7450000E-03    3.2371519E-16
  1.7800000E-03   -1.6115517E-16
  1.8150000E-03   -4.9264056E-16
  1.8500000E-03    1.9826323E-16
  1.8850000E-03    7.1997891E-16
  1.9200000E-03   -1.9509398E-16
  1.9550000E-03   -1.0005596E-15
  1.9900000E-03    1.1922785E-16
  2.0250001E-03    1.3093913E-15
  2.0600001E-03    6.3487998E-17
  2.0949999E-03   -1.5926915E-15
  2.1299999E-03   -3.7729296E-16
  2.1650000E-03    1.7610155E-15
  2.2000000E-03    8.1633504E-16
  2.2350000E-03   -1.6897658E-15
  2.2700001E-03   -1.3175380E-15
  2.3050001E-03    1.2319425E-15
  2.3399999E-03    1.7318269E-15
  2.3749999E-03   -2.4550210E-16
  2.4100000E-03   -1.7990772E-15
  2.4450000E-03   -1.3606905E-15
  2.4800000E-03    1.1341056E-15
  2.5150001E-03    3.5558854E-15
  2.5500001E-03    7.5908022E-16
  2.5849999E-03   -6.0959720E-15
  2.6199999E-03   -4.4243373E-15
  2.6550000E-03    8.4371224E-15
  2.6900000E-03    1.0336293E-14
  2.7250000E-03   -9.6836356E-15
  2.7600001E-03   -1.8735542E-14
  2.7950001E-03    8.5924106E-15
  2.8299999E-03    2.9412623E-14
  2.8649999E-03   -3.6733439E-15
  2.9000000E-03   -4.1459596E-14
  2.9350000E-03   -6.5583364E-15
  2.9700000E-03    5.3076128E-14
  3.0050001E-03    2.3187767E-14
  3.0400001E-03   -6.1515517E-14
  3.0749999E-03   -4.6418381E-14
  3.1099999E-03    6.3191565E-14
  3.1450000E-03    7.4973902E-14
  3.1800000E-03   -5.4072195E-14
  3.2150000E-03   -1.0541266E-13
  3.2500001E-03    3.0625482E-14
  3.2850001E-03    1.3178724E-13
  3.3199999E-03    8.8096687E-15
  3.3549999E-03   -1.4608361E-13
  3.3900000E-03   -6.2894785E-14
  3.4250000E-03    1.3902275E-13
  3.4600000E-03    1.2633288E-13
  3.4950001E-03   -1.0094458E-13
  3.5300001E-03   -1.8817753E-13
  3.5649999E-03    2.4360786E-14
  3.5999999E-03    2.3068968E-13
  3.6350000E-03    9.1019010E-14
  3.6700000E-03   -2.3232783E-13
  3.7050000E-03   -2.3495141E-13
  3.7400001E-03    1.7363342E-13
  3.7750001E-03    3.8847360E-13
  3.8099999E-03   -3.9361015E-14
  3.8449999E-03   -5.2442669E-13
  3.8800000E-03   -1.8081798E-13
  3.9149998E-03    6.0193576E-13
  3.9499998E-03    4.8048902E-13
  3.9849998E-03   -5.7034753E-13
  4.0199999E-03   -8.2081688E-13
  4.0549999E-03    3.9404992E-13
  4.0899999E-03    1.1396954E-12
  4.1250000E-03   -6.8682121E-14
  4.1600000E-03   -1.3770115E-12
  4.1950000E-03   -3.9504641E-13
  4.2300001E-03    1.4671386E-12
  4.2650001E-03    9.6974436E-13
  4.3000001E-03   -1.3194009E-12
  4.3350002E-03   -1.5582675E-12
  4.3700002E-03    8.7476245E-13
  4.4049998E-03    1.9915790E-12
  4.4399998E-03   -1.9196896E-13
  4.4749998E-03   -2.1414016E-12
  4.5099999E-03   -6.0218486E-13
  4.5449999E-03    1.9667020E-12
  4.5799999E-03    1.4194035E-12
  4.6150000E-03   -1.3947694E-12
  4.6500000E-03   -2.1118851E-12
  4.6850001E-03    3.4427132E-13
  4.7200001E-03    2.3443242E-12
  4.7550001E-03    9.9552907E-13
  4.7900002E-03   -1.8622057E-12
  4.8250002E-03   -2.1900715E-12
  4.8600002E-03    7.9241518E-13
  4.8949998E-03    3.0235974E-12
  4.9299998E-03    7.0927904E-13
  4.9649999E-03   -3.4543165E-12
  4.9999999E-03   -2.7768185E-12
  5.0349999E-03    2.9909966E-12
  5.0700000E-03    5.1213838E-12
  5.1050000E-03   -1.0698808E-12
  5.1400000E-03   -6.6369796E-12
  5.1750001E-03   -1.7622664E-12
  5.2100001E-03    6.7594094E-12
  5.2450001E-03    4.4841470E-12
  5.2800002E-03   -6.0943746E-12
  5.3150002E-03   -7.3056162E-12
  5.3500002E-03    4.4055263E-12
  5.3849998E-03    1.0344506E-11
  5.4199998E-03   -3.3781631E-13
  5.4549999E-03   -1.1342201E-11
  5.4899999E-03   -4.9735732E-12
  5.5249999E-03    8.6696414E-12
  5.5600000E-03    8.0570646E-12
  5.5950000E-03   -4.9496522E-12
  5.6300000E-03   -9.0529554E-12
  5.6650001E-03    2.0183041E-12
  5.7000001E-03    1.0767599E-11
  5.7350001E-03    3.5883223E-12
  5.7700002E-03   -1.0034113E-11
  5.8050002E-03   -1.1804971E-11
  5.8400002E-03    1.4974440E-12
  5.8749998E-03    1.3943731E-11
  5.9099998E-03    9.0705178E-12
  5.9449999E-03   -7.9544791E-12
  5.9799999E-03   -1.2798962E-11
  6.0149999E-03    4.1756949E-12
  6.0500000E-03    1.6547801E-11
  6.0850000E-03   -1.9423404E-12
  6.1200000E-03   -2.7580960E-11
  6.1550001E-03   -1.3737542E-11
  6.1900001E-03    2.9238001E-11
  6.2250001E-03    3.6197687E-11
  6.2600002E-03   -9.7155140E-12
  6.2950002E-03   -3.9433946E-11
  6.3299998E-03   -6.5415460E-12
  6.3649998E-03    3.1013195E-11
  6.3999998E-03    5.7306646E-12
  6.4349999E-03   -3.9655418E-11
  6.4699999E-03   -1.9665164E-11
  6.5049999E-03    4.4628513E-11
  6.5400000E-03    5.2934483E-11
  6.5750000E-03   -1.0209129E-11
  6.6100000E-03   -5.1998815E-11
  6.6450001E-03   -2.3029838E-11
  6.6800001E-03    1.5705307E-11
  6.7150001E-03    7.6450244E-12
  6.7500002E-03   -1.3942521E-11
  6.7850002E-03    3.2924127E-13
  6.8199998E-03    3.3641728E-11
  6.8549998E-03    4.0040197E-11
  6.8899998E-03    8.5526924E-12
  6.9249999E-03   -3.8419552E-11
  6.9599999E-03   -6.4978876E-11
  6.9949999E-03   -3.7397450E-11
  7.0300000E-03    2.8618099E-11
  7.0650000E-03    5.8161403E-11
  7.1000000E-03    1.9585743E-11
  7.1350001E-03   -9.8350243E-12
  7.1700001E-03    2.8748998E-11
  7.2050001E-03    5.0198692E-11
  7.2400002E-03   -3.7469240E-11
  7.2750002E-03   -1.3659847E-10
  7.3099998E-03   -8.4217001E-11
  7.3449998E-03    6.9074503E-11
  7.3799998E-03    1.2056692E-10
  7.4149999E-03    4.0311168E-11
  7.4499999E-03   -5.2195483E-12
  7.4850000E-03    3.4574510E-11
  7.5200000E-03    1.8727058E-11
  7.5550000E-03   -9.7200900E-11
  7.5900001E-03   -1.5396276E-10
  7.6250001E-03   -5.8158801E-11
  7.6600001E-03    6.9349408E-11
  7.6950002E-03    1.1110893E-10
  7.7300002E-03    1.0737053E-10
  7.7650002E-03    9.7353139E-11
  7.7999998E-03    1.9319725E-11
  7.8349998E-03   -1.2121650E-10
  7.8699999E-03   -1.8352415E-10
  7.9049999E-03   -1.0512994E-10
  7.9399999E-03   -1.0291638E-12
  7.9750000E-03    4.7072658E-11
  8.0100000E-03    1.0704058E-10
  8.0450000E-03    1.9660171E-10
  8.0800001E-03    1.7351151E-10
  8.1150001E-03   -2.8190431E-11
  8.1500001E-03   -2.2950930E-10
  8.1850002E-03   -2.3634072E-10
  8.2200002E-03   -9.5750068E-11
  8.2550002E-03    2.5936871E-11
  8.2900003E-03    8.9635778E-11
  8.3250003E-03    1.5489601E-10
  8.3600003E-03    2.0345017E-10
  8.3950004E-03    1.4858827E-10
  8.4300004E-03   -1.3643065E-11
  8.4650004E-03   -1.8123231E-10
  8.5000005E-03   -2.5884134E-10
  8.5349996E-03   -2.0441963E-10
  8.5699996E-03   -1.7824778E-11
  8.6049996E-03    1.9977536E-10
  8.6399997E-03    2.6732050E-10
  8.6749997E-03    1.5528309E-10
  8.7099997E-03    6.2114133E-11
  8.7449998E-03    8.8398518E-11
  8.7799998E-03    3.3061959E-11
  8.8149998E-03   -2.3714850E-10
  8.8499999E-03   -4.1939016E-10
  8.8849999E-03   -1.5281740E-10
  8.9199999E-03    3.3900036E-10
  8.9550000E-03    4.7494969E-10
  8.9900000E-03    2.0578793E-10
  9.0250000E-03    6.7721530E-11
  9.0600001E-03    2.2409222E-10
  9.0950001E-03    1.9676051E-10
  9.1300001E-03   -1.9519439E-10
  9.1650002E-03   -4.1038167E-10
  9.2000002E-03   -6.4911861E-11
  9.2350002E-03    4.4053949E-10
  9.2700003E-03    5.8574073E-10
  9.3050003E-03    4.7384235E-10
  9.3400003E-03    4.5352966E-10
  9.3750004E-03    4.6627868E-10
  9.4100004E-03    3.0830019E-10
  9.4450004E-03    1.3405277E-10
  9.4799995E-03    1.7034137E-10
  9.5149996E-03    3.5305800E-10
  9.5499996E-03    6.1150923E-10
  9.5849996E-03    9.7975683E-10
  9.6199997E-03    1.2690140E-09
  9.6549997E-03    1.2318446E-09
  9.6899997E-03    1.0526395E-09
  9.7249998E-03    1.1197966E-09
  9.7599998E-03    1.3799625E-09
  9.7949998E-03    1.4593110E-09
  9.8299999E-03    1.4377826E-09
  9.8649999E-03    1.8074457E-09
  9.8999999E-03    2.4792228E-09
  9.9350000E-03    2.8270739E-09
  9.9700000E-03    2.9157448E-09
  1.0005000E-02    3.3507306E-09
  1.0040000E-02    3.9795407E-09
  1.0075000E-02    4.2263060E-09
  1.0110000E-02    4.2754826E-09
  1.0145000E-02    4.7080588E-09
  1.0180000E-02    5.5636442E-09
  1.0215000E-02    6.4013679E-09
  1.0250000E-02    6.9982762E-09
  1.0285000E-02    7.7548572E-09
  1.0320000E-02    8.9683780E-09
  1.0355000E-02    1.0134373E-08
  1.0390000E-02    1.1009788E-08
  1.0425000E-02    1.2103105E-08
  1.0460000E-02    1.3317472E-08
  1.0495000E-02    1.4298341E-08
  1.0530000E-02    1.5670304E-08
  1.0565000E-02    1.7683044E-08
  1.0600000E-02    1.9676964E-08
  1.0635000E-02    2.1780174E-08
  1.0670000E-02    2.4341775E-08
  1.0705000E-02    2.6893389E-08
  1.0740000E-02    2.9417899E-08
  1.0775000E-02    3.2148943E-08
  1.0810000E-02    3.4830883E-08
  1.0845000E-02    3.7839953E-08
  1.0880000E-02    4.1377806E-08
  1.0915000E-02    4.4896140E-08
  1.0950000E-02    4.9341480E-08
  1.0985000E-02    5.5362534E-08
  1.1020000E-02    6.0824910E-08
  1.1055000E-02    6.5313600E-08
  1.1090000E-02    7.1053250E-08
  1.1125000E-02    7.7580815E-08
  1.1160000E-02    8.3538858E-08
  1.1195000E-02    9.0046719E-08
  1.1230000E-02    9.7418976E-08
  1.1265000E-02    1.0562078E-07
  1.1300000E-02    1.1578179E-07
  1.1335000E-02    1.2633812E-07
  1.1370000E-02    1.3577674E-07
  1.1405000E-02    1.4653180E-07
  1.1440000E-02    1.5852048E-07
  1.1475000E-02    1.6951718E-07
  1.1510000E-02    1.8177278E-07
  1.1545000E-02    1.9609662E-07
  1.1580000E-02    2.0989833E-07
  1.1615000E-02    2.2523400E-07
  1.1650000E-02    2.4353767E-07
  1.1685000E-02    2.6117550E-07
  1.1720000E-02    2.7906103E-07
  1.1755000E-02    2.9953011E-07
  1.1790000E-02    3.1944748E-07
  1.1825000E-02    3.3957775E-07
  1.1860000E-02    3.6284683E-07
  1.1895000E-02    3.8589712E-07
  1.1930000E-02    4.0943874E-07
  1.1965000E-02    4.3756080E-07
  1.2000000E-02    4.6566194E-07
  1.2035000E-02    4.9237445E-07
  1.2070000E-02    5.2367466E-07
  1.2105000E-02    5.5636519E-07
  1.2140000E-02    5.8674937E-07
  1.2175000E-02    6.2032188E-07
  1.2210000E-02    6.5551387E-07
  1.2245000E-02    6.8908975E-07
  1.2280000E-02    7.2756666E-07
  1.2315000E-02    7.6927705E-07
  1.2350000E-02    8.0810435E-07
  1.2385000E-02    8.5053159E-07
  1.2420000E-02    8.9663524E-07
  1.2455000E-02    9.3874507E-07
  1.2490000E-02    9.8366888E-07
  1.2525000E-02    1.0343998E-06
  1.2560000E-02    1.0814175E-06
  1.2595000E-02    1.1293594E-06
  1.2630000E-02    1.1837330E-06
  1.2665000E-02    1.2354194E-06
  1.2700000E-02    1.2879437E-06
  1.2735000E-02    1.3482876E-06
  1.2770000E-02    1.4056118E-06
  1.2805000E-02    1.4606450E-06
  1.2840000E-02    1.5234601E-06
  1.2875000E-02    1.5849876E-06
  1.2910000E-02    1.6438815E-06
  1.2945000E-02    1.7114326E-06
  1.2980000E-02    1.7784741E-06
  1.3015000E-02    1.8405681E-06
  1.3050000E-02    1.9117556E-06
  1.3085000E-02    1.9852960E-06
  1.3120000E-02    2.0521588E-06
  1.3155000E-02    2.1261317E-06
  1.3190000E-02    2.2040210E-06
  1.3225000E-02    2.2743864E-06
  1.3260000E-02    2.3501534E-06
  1.3295000E-02    2.4312799E-06
  1.3330000E-02    2.5045763E-06
  1.3365000E-02    2.5824343E-06
  1.3400000E-02    2.6684106E-06
  1.3435000E-02    2.7465819E-06
  1.3470000E-02    2.8260581E-06
  1.3505000E-02    2.9139801E-06
  1.3540000E-02    2.9942405E-06
  1.3575000E-02    3.0733063E-06
  1.3610000E-02    3.1618999E-06
  1.3645000E-02    3.2441121E-06
  1.3680000E-02    3.3220372E-06
  1.3715000E-02    3.4084374E-06
  1.3750000E-02    3.4896375E-06
  1.3785000E-02    3.5650755E-06
  1.3820000E-02    3.6484196E-06
  1.3855000E-02    3.7266129E-06
  1.3890000E-02    3.7959494E-06
  1.3925000E-02    3.8720832E-06
  1.3960000E-02    3.9444531E-06
  1.3995000E-02    4.0058594E-06
  1.4030000E-02    4.0724881E-06
  1.4065000E-02    4.1366288E-06
  1.4100000E-02    4.1876424E-06
  1.4135000E-02    4.2414254E-06
  1.4170000E-02    4.2947659E-06
  1.4205000E-02    4.3352779E-06
  1.4240000E-02    4.3767491E-06
  1.4275000E-02    4.4187145E-06
  1.4310000E-02    4.4471712E-06
  1.4345000E-02    4.4733047E-06
  1.4380000E-02    4.4997719E-06
  1.4415000E-02    4.5133365E-06
  1.4450000E-02    4.5232491E-06
  1.4485000E-02    4.5342922E-06
  1.4520000E-02    4.5345291E-06
  1.4555000E-02    4.5315669E-06
  1.4590000E-02    4.5301108E-06
  1.4625000E-02    4.5182774E-06
  1.4660000E-02    4.5044044E-06
  1.4695000E-02    4.4952153E-06
  1.4730000E-02    4.4763028E-06
  1.4765000E-02    4.4531012E-06
  1.4800000E-02    4.4361859E-06
  1.4835000E-02    4.4134008E-06
  1.4870000E-02    4.3875216E-06
  1.4905000E-02    4.3691562E-06
  1.4940000E-02    4.3459240E-06
  1.4975000E-02    4.3186224E-06
  1.5010000E-02    4.3011942E-06
  1.5045000E-02    4.2836409E-06
  1.5080000E-02    4.2621318E-06
  1.5115000E-02    4.2492293E-06
  1.5150000E-02    4.2371184E-06
  1.5185000E-02    4.2194224E-06
  1.5220000E-02    4.2082693E-06
  1.5255000E-02    4.2006750E-06
  1.5290000E-02    4.1900298E-06
  1.5325000E-02    4.1842618E-06
  1.5360000E-02    4.1804174E-06
  1.5395000E-02    4.1735602E-06
  1.5430000E-02    4.1706244E-06
  1.5465000E-02    4.1657645E-06
  1.5500000E-02    4.1530629E-06
  1.5535000E-02    4.1435346E-06
  1.5570000E-02    4.1327376E-06
  1.5605000E-02    4.1077992E-06
  1.5640000E-02    4.0781924E-06
  1.5675001E-02    4.0475220E-06
  1.5710000E-02    4.0028867E-06
  1.5745001E-02    3.9467964E-06
  1.5780000E-02    3.8850112E-06
  1.5814999E-02    3.8081512E-06
  1.5850000E-02    3.7149503E-06
  1.5884999E-02    3.6123199E-06
  1.5920000E-02    3.4957679E-06
  1.5954999E-02    3.3603380E-06
  1.5990000E-02    3.2096539E-06
  1.6024999E-02    3.0438766E-06
  1.6060000E-02    2.8586664E-06
  1.6094999E-02    2.6541861E-06
  1.6130000E-02    2.4340634E-06
  1.6164999E-02    2.1989479E-06
  1.6200000E-02    1.9478728E-06
  1.6235000E-02    1.6824754E-06
  1.6270000E-02    1.4033551E-06
  1.6305000E-02    1.1101646E-06
  1.6340001E-02    8.0675591E-07
  1.6375000E-02    4.9511311E-07
  1.6410001E-02    1.7438866E-07
  1.6445000E-02   -1.5094291E-07
  1.6480001E-02   -4.7898266E-07
  1.6515000E-02   -8.1067861E-07
  1.6550001E-02   -1.1366888E-06
  1.6585000E-02   -1.4524018E-06
  1.6620001E-02   -1.7639692E-06
  1.6655000E-02   -2.0630957E-06
  1.6690001E-02   -2.3393757E-06
  1.6725000E-02   -2.5983181E-06
  1.6759999E-02   -2.8336137E-06
  1.6795000E-02   -3.0335084E-06
  1.6829999E-02   -3.2049784E-06
  1.6865000E-02   -3.3428594E-06
  1.6899999E-02   -3.4313321E-06
  1.6935000E-02   -3.4781597E-06
  1.6969999E-02   -3.4813136E-06
  1.7005000E-02   -3.4180521E-06
  1.7039999E-02   -3.2903718E-06
  1.7075000E-02   -3.1017325E-06
  1.7109999E-02   -2.8324309E-06
  1.7145000E-02   -2.4812580E-06
  1.7180000E-02   -2.0504360E-06
  1.7215000E-02   -1.5175964E-06
  1.7250000E-02   -8.7802061E-07
  1.7285001E-02   -1.3540340E-07
  1.7320000E-02    7.3350691E-07
  1.7355001E-02    1.7384496E-06
  1.7390000E-02    2.8757790E-06
  1.7425001E-02    4.1689391E-06
  1.7460000E-02    5.6347735E-06
  1.7495001E-02    7.2748435E-06
  1.7530000E-02    9.1124393E-06
  1.7565001E-02    1.1165122E-05
  1.7600000E-02    1.3438595E-05
  1.7635001E-02    1.5964213E-05
  1.7670000E-02    1.8766172E-05
  1.7704999E-02    2.1849357E-05
  1.7740000E-02    2.5246018E-05
  1.7774999E-02    2.8988376E-05
  1.7810000E-02    3.3085740E-05
  1.7844999E-02    3.7572841E-05
  1.7880000E-02    4.2490839E-05
  1.7914999E-02    4.7854606E-05
  1.7950000E-02    5.3698208E-05
  1.7984999E-02    6.0067428E-05
  1.8020000E-02    6.6982968E-05
  1.8054999E-02    7.4481017E-05
  1.8090000E-02    8.2615312E-05
  1.8124999E-02    9.1414353E-05
  1.8160000E-02    1.0090997E-04
  1.8195000E-02    1.1115165E-04
  1.8230001E-02    1.2217274E-04
  1.8265000E-02    1.3400844E-04
  1.8300001E-02    1.4670849E-04
  1.8335000E-02    1.6030615E-04
  1.8370001E-02    1.7483057E-04
  1.8405000E-02    1.9032310E-04
  1.8440001E-02    2.0681359E-04
  1.8475000E-02    2.2432566E-04
  1.8510001E-02    2.4288999E-04
  1.8545000E-02    2.6252578E-04
  1.8580001E-02    2.8324605E-04
  1.8615000E-02    3.0506903E-04
  1.8650001E-02    3.2799621E-04
  1.8685000E-02    3.5201447E-04
  1.8719999E-02    3.7711806E-04
  1.8755000E-02    4.0329405E-04
  1.8789999E-02    4.3050578E-04
  1.8825000E-02    4.5870704E-04
  1.8859999E-02    4.8784798E-04
  1.8895000E-02    5.1786134E-04
  1.8929999E-02    5.4866431E-04
  1.8965000E-02    5.8016682E-04
  1.8999999E-02    6.1225705E-04
  1.9035000E-02    6.4479897E-04
  1.9069999E-02    6.7765149E-04
  1.9105000E-02    7.1065687E-04
  1.9140000E-02    7.4362045E-04
  1.9175000E-02    7.7633967E-04
  1.9210000E-02    8.0860528E-04
  1.9245001E-02    8.4016431E-04
  1.9280000E-02    8.7074132E-04
  1.9315001E-02    9.0006139E-04
  1.9350000E-02    9.2781254E-04
  1.9385001E-02    9.5365453E-04
  1.9420000E-02    9.7725086E-04
  1.9455001E-02    9.9823088E-04
  1.9490000E-02    1.0161870E-03
  1.9525001E-02    1.0307172E-03
  1.9560000E-02    1.0413975E-03
  1.9595001E-02    1.0477729E-03
  1.9630000E-02    1.0493954E-03
  1.9664999E-02    1.0457978E-03
  1.9700000E-02    1.0364843E-03
  1.9734999E-02    1.0209787E-03
  1.9770000E-02    9.9879957E-04
  1.9804999E-02    9.6943945E-04
  1.9840000E-02    9.3241769E-04
  1.9874999E-02    8.8726665E-04
  1.9910000E-02    8.3350186E-04
  1.9944999E-02    7.7067403E-04
  1.9980000E-02    6.9836318E-04
  2.0014999E-02    6.1614875E-04
  2.0050000E-02    5.2365835E-04
  2.0085000E-02    4.2056805E-04
  2.0120000E-02    3.0656735E-04
  2.0155000E-02    1.8140381E-04
  2.0190001E-02    4.4896438E-05
  2.0225000E-02   -1.0310114E-04
  2.0260001E-02   -2.6266667E-04
  2.0295000E-02   -4.3378936E-04
  2.0330001E-02   -6.1640446E-04
  2.0365000E-02   -8.1036572E-04
  2.0400001E-02   -1.0154217E-03
  2.0435000E-02   -1.2312488E-03
  2.0470001E-02   -1.4574347E-03
  2.0505000E-02   -1.6934548E-03
  2.0540001E-02   -1.9386958E-03
  2.0575000E-02   -2.1924477E-03
  2.0609999E-02   -2.4538850E-03
  2.0645000E-02   -2.7220859E-03
  2.0679999E-02   -2.9960321E-03
  2.0715000E-02   -3.2745975E-03
  2.0749999E-02   -3.5565607E-03
  2.0785000E-02   -3.8406011E-03
  2.0819999E-02   -4.1253003E-03
  2.0855000E-02   -4.4091740E-03
  2.0889999E-02   -4.6906490E-03
  2.0925000E-02   -4.9680676E-03
  2.0959999E-02   -5.2397298E-03
  2.0995000E-02   -5.5038729E-03
  2.1029999E-02   -5.7586837E-03
  2.1065000E-02   -6.0023246E-03
  2.1100000E-02   -6.2329448E-03
  2.1135001E-02   -6.4486759E-03
  2.1170000E-02   -6.6476627E-03
  2.1205001E-02   -6.8280748E-03
  2.1240000E-02   -6.9881086E-03
  2.1275001E-02   -7.1260207E-03
  2.1310000E-02   -7.2401343E-03
  2.1345001E-02   -7.3288460E-03
  2.1380000E-02   -7.3906663E-03
  2.1415001E-02   -7.4242116E-03
  2.1450000E-02   -7.4282051E-03
  2.1485001E-02   -7.4015404E-03
  2.1520000E-02   -7.3432685E-03
  2.1555001E-02   -7.2525670E-03
  2.1590000E-02   -7.1288152E-03
  2.1624999E-02   -6.9716028E-03
  2.1660000E-02   -6.7806761E-03
  2.1694999E-02   -6.5559885E-03
  2.1730000E-02   -6.2977308E-03
  2.1764999E-02   -6.0062865E-03
  2.1800000E-02   -5.6822398E-03
  2.1834999E-02   -5.3264126E-03
  2.1870000E-02   -4.9398243E-03
  2.1904999E-02   -4.5237034E-03
  2.1940000E-02   -4.0794928E-03
  2.1974999E-02   -3.6088119E-03
  2.2010000E-02   -3.1134707E-03
  2.2045000E-02   -2.5954801E-03
  2.2080000E-02   -2.0569805E-03
  2.2115000E-02   -1.5002501E-03
  2.2150001E-02   -9.2774350E-04
  2.2185000E-02   -3.4200898E-04
  2.2220001E-02    2.5433709E-04
  2.2255000E-02    8.5856044E-04
  2.2290001E-02    1.4678795E-03
  2.2325000E-02    2.0795078E-03
  2.2360001E-02    2.6905984E-03
  2.2395000E-02    3.2983120E-03
  2.2430001E-02    3.8998800E-03
  2.2465000E-02    4.4925455E-03
  2.2500001E-02    5.0735991E-03
  2.2535000E-02    5.6404578E-03
  2.2569999E-02    6.1906301E-03
  2.2605000E-02    6.7217173E-03
  2.2639999E-02    7.2314935E-03
  2.2675000E-02    7.7178781E-03
  2.2709999E-02    8.1789317E-03
  2.2745000E-02    8.6129094E-03
  2.2779999E-02    9.0182545E-03
  2.2815000E-02    9.3935831E-03
  2.2849999E-02    9.7377291E-03
  2.2885000E-02    1.0049739E-02
  2.2919999E-02    1.0328840E-02
  2.2955000E-02    1.0574473E-02
  2.2990000E-02    1.0786291E-02
  2.3025000E-02    1.0964146E-02
  2.3060000E-02    1.1108075E-02
  2.3095001E-02    1.1218322E-02
  2.3130000E-02    1.1295302E-02
  2.3165001E-02    1.1339599E-02
  2.3200000E-02    1.1351964E-02
  2.3235001E-02    1.1333303E-02
  2.3270000E-02    1.1284654E-02
  2.3305001E-02    1.1207176E-02
  2.3340000E-02    1.1102150E-02
  2.3375001E-02    1.0970948E-02
  2.3410000E-02    1.0815016E-02
  2.3445001E-02    1.0635875E-02
  2.3480000E-02    1.0435106E-02
  2.3514999E-02    1.0214325E-02
  2.3550000E-02    9.9751679E-03
  2.3584999E-02    9.7192945E-03
  2.3620000E-02    9.4483625E-03
  2.3654999E-02    9.1640064E-03
  2.3690000E-02    8.8678570E-03
  2.3724999E-02    8.5615069E-03
  2.3760000E-02    8.2464907E-03
  2.3794999E-02    7.9243062E-03
  2.3830000E-02    7.5963968E-03
  2.3864999E-02    7.2641494E-03
  2.3900000E-02    6.9288579E-03
  2.3934999E-02    6.5917489E-03
  2.3970000E-02    6.2539997E-03
  2.4005000E-02    5.9166830E-03
  2.4040001E-02    5.5807801E-03
  2.4075000E-02    5.2472241E-03
  2.4110001E-02    4.9168635E-03
  2.4145000E-02    4.5904284E-03
  2.4180001E-02    4.2685936E-03
  2.4215000E-02    3.9519863E-03
  2.4250001E-02    3.6411283E-03
  2.4285000E-02    3.3364475E-03
  2.4320001E-02    3.0383586E-03
  2.4355000E-02    2.7472046E-03
  2.4390001E-02    2.4632136E-03
  2.4425000E-02    2.1865934E-03
  2.4460001E-02    1.9175367E-03
  2.4495000E-02    1.6561415E-03
  2.4529999E-02    1.4024600E-03
  2.4565000E-02    1.1565435E-03
  2.4599999E-02    9.1839070E-04
  2.4635000E-02    6.8794395E-04
  2.4669999E-02    4.6514982E-04
  2.4705000E-02    2.4993662E-04
  2.4739999E-02    4.2184343E-05
  2.4775000E-02   -1.5823150E-04
  2.4809999E-02   -3.5143420E-04
  2.4845000E-02   -5.3758017E-04
  2.4879999E-02   -7.1683235E-04
  2.4915000E-02   -8.8933727E-04
  2.4950000E-02   -1.0552664E-03
  2.4985000E-02   -1.2148106E-03
  2.5020000E-02   -1.3681304E-03
  2.5055001E-02   -1.5153820E-03
  2.5090000E-02   -1.6567557E-03
  2.5125001E-02   -1.7924326E-03
  2.5160000E-02   -1.9225577E-03
  2.5195001E-02   -2.0472871E-03
  2.5230000E-02   -2.1668044E-03
  2.5265001E-02   -2.2812709E-03
  2.5300000E-02   -2.3908205E-03
  2.5335001E-02   -2.4956004E-03
  2.5370000E-02   -2.5957711E-03
  2.5405001E-02   -2.6914624E-03
  2.5440000E-02   -2.7827944E-03
  2.5474999E-02   -2.8699131E-03
  2.5510000E-02   -2.9529503E-03
  2.5544999E-02   -3.0320100E-03
  2.5580000E-02   -3.1072132E-03
  2.5614999E-02   -3.1786885E-03
  2.5650000E-02   -3.2465328E-03
  2.5684999E-02   -3.3108452E-03
  2.5720000E-02   -3.3717442E-03
  2.5754999E-02   -3.4293251E-03
  2.5790000E-02   -3.4836759E-03
  2.5824999E-02   -3.5349033E-03
  2.5860000E-02   -3.5830948E-03
  2.5895000E-02   -3.6283238E-03
  2.5930000E-02   -3.6706894E-03
  2.5965000E-02   -3.7102734E-03
  2.6000001E-02   -3.7471373E-03
  2.6035000E-02   -3.7813736E-03
  2.6070001E-02   -3.8130679E-03
  2.6105000E-02   -3.8422660E-03
  2.6140001E-02   -3.8690460E-03
  2.6175000E-02   -3.8934920E-03
  2.6210001E-02   -3.9156461E-03
  2.6245000E-02   -3.9355657E-03
  2.6280001E-02   -3.9533409E-03
  2.6315000E-02   -3.9690123E-03
  2.6350001E-02   -3.9826212E-03
  2.6385000E-02   -3.9942516E-03
  2.6419999E-02   -4.0039476E-03
  2.6455000E-02   -4.0117325E-03
  2.6489999E-02   -4.0176776E-03
  2.6525000E-02   -4.0218467E-03
  2.6559999E-02   -4.0242523E-03
  2.6595000E-02   -4.0249433E-03
  2.6629999E-02   -4.0239915E-03
  2.6665000E-02   -4.0214257E-03
  2.6699999E-02   -4.0172664E-03
  2.6735000E-02   -4.0115695E-03
  2.6769999E-02   -4.0043890E-03
  2.6805000E-02   -3.9957468E-03
  2.6839999E-02   -3.9856727E-03
  2.6875000E-02   -3.9742170E-03
  2.6910000E-02   -3.9614239E-03
  2.6945001E-02   -3.9473185E-03
  2.6980000E-02   -3.9319354E-03