 -4.8000002E-03    1.0000000E-24
 -4.7650002E-03    1.0000000E-24
 -4.7300002E-03    1.0000001E-24
 -4.6950001E-03    1.0000002E-24
 -4.6600001E-03    1.0000001E-24
 -4.6250001E-03    1.0000001E-24
 -4.5900000E-03    1.0000001E-24
 -4.5550000E-03    1.0000001E-24
 -4.5200000E-03    1.0000001E-24
 -4.4849999E-03    1.0000002E-24
 -4.4499999E-03    1.0000001E-24
 -4.4149999E-03    1.0000001E-24
 -4.3799998E-03    1.0000002E-24
 -4.3449998E-03    1.0000002E-24
 -4.3100002E-03    1.0000001E-24
 -4.2750002E-03    1.0000000E-24
 -4.2400002E-03    9.9999982E-25
 -4.2050001E-03    9.9999982E-25
 -4.1700001E-03    1.0000001E-24
 -4.1350001E-03    1.0000001E-24
 -4.1000000E-03    1.0000001E-24
 -4.0650000E-03    9.9999992E-25
 -4.0300000E-03    9.9999982E-25
 -3.9949999E-03    1.0000000E-24
 -3.9599999E-03    1.0000001E-24
 -3.9249999E-03    1.0000002E-24
 -3.8900001E-03    1.0000002E-24
 -3.8550000E-03    1.0000001E-24
 -3.8200000E-03    9.9999992E-25
 -3.7849999E-03    1.0000000E-24
 -3.7499999E-03    1.0000004E-24
 -3.7150001E-03    1.0000004E-24
 -3.6800001E-03    1.0000000E-24
 -3.6450000E-03    9.9999972E-25
 -3.6100000E-03    9.9999992E-25
 -3.5750000E-03    9.9999992E-25
 -3.5399999E-03    9.9999982E-25
 -3.5049999E-03    1.0000003E-24
 -3.4700001E-03    1.0000006E-24
 -3.4350001E-03    1.0000002E-24
 -3.4000000E-03    9.9999982E-25
 -3.3650000E-03    9.9999992E-25
 -3.3300000E-03    9.9999992E-25
 -3.2949999E-03    9.9999972E-25
 -3.2599999E-03    9.9999982E-25
 -3.2250001E-03    1.0000003E-24
 -3.1900001E-03    1.0000004E-24
 -3.1550000E-03    1.0000001E-24
 -3.1200000E-03    9.9999982E-25
 -3.0850000E-03    9.9999992E-25
 -3.0499999E-03    1.0000001E-24
 -3.0149999E-03    1.0000001E-24
 -2.9800001E-03    1.0000003E-24
 -2.9450001E-03    1.0000001E-24
 -2.9100000E-03    9.9999992E-25
 -2.8750000E-03    9.9999992E-25
 -2.8400000E-03    1.0000002E-24
 -2.8049999E-03    1.0000002E-24
 -2.7699999E-03    1.0000000E-24
 -2.7350001E-03    1.0000000E-24
 -2.7000001E-03    1.0000000E-24
 -2.6650000E-03    9.9999972E-25
 -2.6300000E-03    1.0000000E-24
 -2.5950000E-03    1.0000008E-24
 -2.5599999E-03    1.0000008E-24
 -2.5249999E-03    1.0000003E-24
 -2.4900001E-03    1.0000000E-24
 -2.4550001E-03    9.9999992E-25
 -2.4200000E-03    9.9999992E-25
 -2.3850000E-03    1.0000000E-24
 -2.3500000E-03    1.0000001E-24
 -2.3149999E-03    9.9999982E-25
 -2.2799999E-03    9.9999972E-25
 -2.2450001E-03    1.0000003E-24
 -2.2100001E-03    9.9999982E-25
 -2.1750000E-03    9.9999982E-25
 -2.1400000E-03    1.0000026E-24
 -2.1050000E-03    9.9999854E-25
 -2.0699999E-03    9.9999312E-25
 -2.0349999E-03    1.0000132E-24
 -2.0000001E-03    1.0000099E-24
 -1.9650001E-03    9.9995200E-25
 -1.9300000E-03    1.0000221E-24
 -1.8950000E-03    1.0001120E-24
 -1.8600000E-03    9.9981089E-25
 -1.8250000E-03    9.9988997E-25
 -1.7900000E-03    1.0006709E-24
 -1.7550000E-03    9.9957946E-25
 -1.7199999E-03    9.9850710E-25
 -1.6850000E-03    1.0027742E-24
 -1.6500000E-03    1.0015057E-24
 -1.6150000E-03    9.9072696E-25
 -1.5800000E-03    1.0042047E-24
 -1.5450000E-03    1.0214431E-24
 -1.5100000E-03    9.7151169E-25
 -1.4750001E-03    9.6750763E-25
 -1.4400000E-03    1.0944022E-24
 -1.4050000E-03    1.0099016E-24
 -1.3700000E-03    7.7562791E-25
 -1.3350000E-03    1.1296596E-24
 -1.3000000E-03    1.3957306E-24
 -1.2650000E-03    4.7057515E-25
 -1.2300001E-03    5.5680855E-25
 -1.1950000E-03    2.3223817E-24
 -1.1600000E-03    9.2458492E-25
 -1.1250000E-03   -1.3778879E-24
 -1.0900000E-03    2.9387088E-24
 -1.0550000E-03    3.7709555E-24
 -1.0200000E-03   -4.9901467E-24
 -9.8500005E-04    9.8230084E-25
 -9.5000002E-04    1.3174322E-23
 -9.1499998E-04   -9.5748915E-24
 -8.8000001E-04   -1.6644069E-23
 -8.4499997E-04    3.6733084E-23
 -8.1000000E-04    1.5251262E-23
 -7.7500002E-04   -8.1419703E-23
 -7.3999999E-04    1.4287964E-23
 -7.0500001E-04    1.5529913E-22
 -6.6999998E-04   -8.5277303E-23
 -6.3500000E-04   -2.4703855E-22
 -6.0000003E-04    2.2649242E-22
 -5.6499999E-04    3.5424956E-22
 -5.3000002E-04   -4.3690197E-22
 -4.9499999E-04   -4.6027588E-22
 -4.6000001E-04    6.9836112E-22
 -4.2500001E-04    5.8800420E-22
 -3.9000000E-04   -9.1954858E-22
 -3.5500000E-04   -8.0326775E-22
 -3.1999999E-04    9.3635714E-22
 -2.8499999E-04    1.2924065E-21
 -2.5000001E-04   -4.2802679E-22
 -2.1499999E-04   -2.3819718E-21
 -1.8000000E-04   -1.1484299E-21
 -1.4500000E-04    4.6281636E-21
 -1.1000000E-04    4.7672244E-21
 -7.5000004E-05   -8.8482791E-21
 -3.9999999E-05   -1.2090762E-20
 -4.9999999E-06    1.6204368E-20
  2.9999999E-05    2.5928351E-20
  6.5000000E-05   -2.8141961E-20
  9.9999997E-05   -5.0797578E-20
  1.3499999E-04    4.6156652E-20
  1.7000000E-04    9.3770396E-20
  2.0500000E-04   -7.1006386E-20
  2.3999999E-04   -1.6555945E-19
  2.7500000E-04    1.0115685E-19
  3.1000000E-04    2.8202901E-19
  3.4500001E-04   -1.2992129E-19
  3.8000001E-04   -4.6588616E-19
  4.1499999E-04    1.4091033E-19
  4.4999999E-04    7.4819127E-19
  4.8500000E-04   -1.0095432E-19
  5.2000000E-04   -1.1684996E-18
  5.5499998E-04   -5.0377613E-20
  5.9000001E-04    1.7720155E-18
  6.2499999E-04    4.1600099E-19
  6.6000002E-04   -2.6010667E-18
  6.9500000E-04   -1.1621570E-18
  7.3000003E-04    3.6774498E-18
  7.6500000E-04    2.5451043E-18
  7.9999998E-04   -4.9702528E-18
  8.3500001E-04   -4.9415063E-18
  8.6999999E-04    6.3417737E-18
  9.0500002E-04    8.8777722E-18
  9.4000000E-04   -7.4609160E-18
  9.7499997E-04   -1.5048680E-17
  1.0100000E-03    7.6712730E-18
  1.0450000E-03    2.4309386E-17
  1.0800000E-03   -5.7994357E-18
  1.1150000E-03   -3.7613504E-17
  1.1500000E-03   -1.0809093E-19
  1.1849999E-03    5.5853121E-17
  1.2200000E-03    1.3124194E-17
  1.2550000E-03   -7.9531689E-17
  1.2900000E-03   -3.7844701E-17
  1.3250000E-03    1.0816769E-16
  1.3600000E-03    8.0806354E-17
  1.3950000E-03   -1.3929536E-16
  1.4299999E-03   -1.5080706E-16
  1.4650000E-03    1.6689966E-16
  1.5000000E-03    2.5889705E-16
  1.5350000E-03   -1.7912664E-16
  1.5700000E-03   -4.1763934E-16
  1.6050000E-03    1.5516623E-16
  1.6400000E-03    6.3899276E-16
  1.6749999E-03   -6.1393888E-17
  1.7100000E-03   -9.2991184E-16
  1.7450000E-03   -1.5277958E-16
  1.7800000E-03    1.2844759E-15
  1.8150000E-03    5.5815077E-16
  1.8500000E-03   -1.6713318E-15
  1.8850000E-03   -1.2458234E-15
  1.9200000E-03    2.0156091E-15
  1.9550000E-03    2.3205092E-15
  1.9900000E-03   -2.1756308E-15
  2.0250001E-03   -3.8820126E-15
  2.0600001E-03    1.9169404E-15
  2.0949999E-03    5.9888952E-15
  2.1299999E-03   -8.8969620E-16
  2.1650000E-03   -8.5984178E-15
  2.2000000E-03   -1.3794854E-15
  2.2350000E-03    1.1478968E-14
  2.2700001E-03    5.4634913E-15
  2.3050001E-03   -1.4097567E-14
  2.3399999E-03   -1.1953984E-14
  2.3749999E-03    1.5498089E-14
  2.4100000E-03    2.1298322E-14
  2.4450000E-03   -1.4203907E-14
  2.4800000E-03   -3.3535078E-14
  2.5150001E-03    8.1991476E-15
  2.5500001E-03    4.7929973E-14
  2.5849999E-03    4.9422005E-15
  2.6199999E-03   -6.2542439E-14
  2.6550000E-03   -2.7698863E-14
  2.6900000E-03    7.3797197E-14
  2.7250000E-03    6.1937617E-14
  2.7600001E-03   -7.6199511E-14
  2.7950001E-03   -1.0789514E-13
  2.8299999E-03    6.2415771E-14
  2.8649999E-03    1.6286310E-13
  2.9000000E-03   -2.3988634E-14
  2.9350000E-03   -2.1980540E-13
  2.9700000E-03   -4.7095239E-14
  3.0050001E-03    2.6631139E-13
  3.0400001E-03    1.5593264E-13
  3.0749999E-03   -2.8438458E-13
  3.1099999E-03   -3.0148703E-13
  3.1450000E-03    2.5158833E-13
  3.1800000E-03    4.7300407E-13
  3.2150000E-03   -1.4409253E-13
  3.2500001E-03   -6.4678774E-13
  3.2850001E-03   -5.7927370E-14
  3.3199999E-03    7.8461462E-13
  3.3549999E-03    3.6262857E-13
  3.3900000E-03   -8.3550126E-13
  3.4250000E-03   -7.5779666E-13
  3.4600000E-03    7.4223472E-13
  3.4950001E-03    1.2035094E-12
  3.5300001E-03   -4.5278625E-13
  3.5649999E-03   -1.6289008E-12
  3.5999999E-03   -6.4757309E-14
  3.6350000E-03    1.9351055E-12
  3.6700000E-03    8.0587349E-13
  3.7050000E-03   -2.0058601E-12
  3.7400001E-03   -1.7145126E-12
  3.7750001E-03    1.7272548E-12
  3.8099999E-03    2.6736348E-12
  3.8449999E-03   -1.0169217E-12
  3.8800000E-03   -3.5085090E-12
  3.9149998E-03   -1.4206119E-13
  3.9499998E-03    4.0092630E-12
  3.9849998E-03    1.6740190E-12
  4.0199999E-03   -3.9714712E-12
  4.0549999E-03   -3.4026100E-12
  4.0899999E-03    3.2436879E-12
  4.1250000E-03    5.0653570E-12
  4.1600000E-03   -1.7699188E-12
  4.1950000E-03   -6.3457338E-12
  4.2300001E-03   -3.7684558E-13
  4.2650001E-03    6.9213563E-12
  4.3000001E-03    2.9733867E-12
  4.3350002E-03   -6.5334257E-12
  4.3700002E-03   -5.6553711E-12
  4.4049998E-03    5.0679625E-12
  4.4399998E-03    7.9793065E-12
  4.4749998E-03   -2.6086956E-12
  4.5099999E-03   -9.5249043E-12
  4.5449999E-03   -5.7600712E-13
  4.5799999E-03    9.9840483E-12
  4.6150000E-03    4.0968032E-12
  4.6500000E-03   -9.1996853E-12
  4.6850001E-03   -7.5070531E-12
  4.7200001E-03    7.1767830E-12
  4.7550001E-03    1.0354891E-11
  4.7900002E-03   -4.0918332E-12
  4.8250002E-03   -1.2253738E-11
  4.8600002E-03    2.7047646E-13
  4.8949998E-03    1.2957587E-11
  4.9299998E-03    3.8953346E-12
  4.9649999E-03   -1.2374103E-11
  4.9999999E-03   -8.0353441E-12
  5.0349999E-03    1.0505099E-11
  5.0700000E-03    1.1821704E-11
  5.1050000E-03   -7.3839806E-12
  5.1400000E-03   -1.4929877E-11
  5.1750001E-03    3.0538718E-12
  5.2100001E-03    1.6969245E-11
  5.2450001E-03    2.3943070E-12
  5.2800002E-03   -1.7400022E-11
  5.3150002E-03   -8.6583414E-12
  5.3500002E-03    1.5568623E-11
  5.3849998E-03    1.4993166E-11
  5.4199998E-03   -1.1011478E-11
  5.4549999E-03   -2.0215187E-11
  5.4899999E-03    3.8139015E-12
  5.5249999E-03    2.3039435E-11
  5.5600000E-03    5.3626799E-12
  5.5950000E-03   -2.2319068E-11
  5.6300000E-03   -1.5379262E-11
  5.6650001E-03    1.7028365E-11
  5.7000001E-03    2.4325954E-11
  5.7350001E-03   -6.6964602E-12
  5.7700002E-03   -2.9335531E-11
  5.8050002E-03   -7.4872972E-12
  5.8400002E-03    2.7606389E-11
  5.8749998E-03    2.2275994E-11
  5.9099998E-03   -1.8082284E-11
  5.9449999E-03   -3.3601316E-11
  5.9799999E-03    1.9068052E-12
  6.0149999E-03    3.7947666E-11
  6.0500000E-03    1.8269402E-11
  6.0850000E-03   -3.2550369E-11
  6.1200000E-03   -3.8235630E-11
  6.1550001E-03    1.5978925E-11
  6.1900001E-03    5.1933548E-11
  6.2250001E-03    9.8552251E-12
  6.2600002E-03   -5.3438243E-11
  6.2950002E-03   -3.9039487E-11
  6.3299998E-03    4.0111137E-11
  6.3649998E-03    6.4109967E-11
  6.3999998E-03   -1.3174083E-11
  6.4349999E-03   -7.8261030E-11
  6.4699999E-03   -2.3336636E-11
  6.5049999E-03    7.5583546E-11
  6.5400000E-03    6.1783800E-11
  6.5750000E-03   -5.3307390E-11
  6.6100000E-03   -9.1506892E-11
  6.6450001E-03    1.5439486E-11
  6.6800001E-03    1.0433934E-10
  6.7150001E-03    2.9399858E-11
  6.7500002E-03   -9.7846085E-11
  6.7850002E-03   -7.3381648E-11
  6.8199998E-03    7.1892554E-11
  6.8549998E-03    1.0870863E-10
  6.8899998E-03   -2.8089767E-11
  6.9249999E-03   -1.2546084E-10
  6.9599999E-03   -2.5238926E-11
  6.9949999E-03    1.1729917E-10
  7.0300000E-03    7.3862388E-11
  7.0650000E-03   -8.8716846E-11
  7.1000000E-03   -1.0853890E-10
  7.1350001E-03    4.9396032E-11
  7.1700001E-03    1.2990796E-10
  7.2050001E-03   -9.4340724E-13
  7.2400002E-03   -1.3303764E-10
  7.2750002E-03   -5.0984904E-11
  7.3099998E-03    1.1231758E-10
  7.3449998E-03    9.1560287E-11
  7.3799998E-03   -7.6416082E-11
  7.4149999E-03   -1.1659397E-10
  7.4499999E-03    2.9997279E-11
  7.4850000E-03    1.1618113E-10
  7.5200000E-03    2.8272701E-12
  7.5550000E-03   -1.1894936E-10
  7.5900001E-03   -5.4360318E-11
  7.6250001E-03    7.9184735E-11
  7.6600001E-03    5.9988292E-11
  7.6950002E-03   -7.6439577E-11
  7.7300002E-03   -1.1420430E-10
  7.7650002E-03   -1.2543798E-11
  7.7999998E-03    4.7610499E-11
  7.8349998E-03   -3.4316903E-11
  7.8699999E-03   -1.3537563E-10
  7.9049999E-03   -1.2293574E-10
  7.9399999E-03   -5.3976452E-11
  7.9750000E-03   -6.4744703E-11
  8.0100000E-03   -1.6077789E-10
  8.0450000E-03   -2.3048917E-10
  8.0800001E-03   -2.2623216E-10
  8.1150001E-03   -2.2266633E-10
  8.1500001E-03   -2.9067157E-10
  8.1850002E-03   -4.0294548E-10
  8.2200002E-03   -4.9765370E-10
  8.2550002E-03   -5.7063898E-10
  8.2900003E-03   -6.5996741E-10
  8.3250003E-03   -7.8434759E-10
  8.3600003E-03   -9.4367159E-10
  8.3950004E-03   -1.1452109E-09
  8.4300004E-03   -1.3810973E-09
  8.4650004E-03   -1.6172237E-09
  8.5000005E-03   -1.8623331E-09
  8.5349996E-03   -2.2010191E-09
  8.5699996E-03   -2.6769675E-09
  8.6049996E-03   -3.1977339E-09
  8.6399997E-03   -3.6716878E-09
  8.6749997E-03   -4.1940367E-09
  8.7099997E-03   -4.9464832E-09
  8.7449998E-03   -5.9275722E-09
  8.7799998E-03   -6.9544903E-09
  8.8149998E-03   -7.9682287E-09
  8.8499999E-03   -9.1674712E-09
  8.8849999E-03   -1.0742354E-08
  8.9199999E-03   -1.2613285E-08
  8.9550000E-03   -1.4585480E-08
  8.9900000E-03   -1.6688084E-08
  9.0250000E-03   -1.9189740E-08
  9.0600001E-03   -2.2270696E-08
  9.0950001E-03   -2.5818224E-08
  9.1300001E-03   -2.9639470E-08
  9.1650002E-03   -3.3822541E-08
  9.2000002E-03   -3.8726707E-08
  9.2350002E-03   -4.4552049E-08
  9.2700003E-03   -5.1114242E-08
  9.3050003E-03   -5.8237688E-08
  9.3400003E-03   -6.6194019E-08
  9.3750004E-03   -7.5450558E-08
  9.4100004E-03   -8.6093081E-08
  9.4450004E-03   -9.7873681E-08
  9.4799995E-03   -1.1083316E-07
  9.5149996E-03   -1.2547154E-07
  9.5499996E-03   -1.4218828E-07
  9.5849996E-03   -1.6094681E-07
  9.6199997E-03   -1.8168387E-07
  9.6549997E-03   -2.0471415E-07
  9.6899997E-03   -2.3053070E-07
  9.7249998E-03   -2.5944945E-07
  9.7599998E-03   -2.9160432E-07
  9.7949998E-03   -3.2717813E-07
  9.8299999E-03   -3.6657676E-07
  9.8649999E-03   -4.1036893E-07
  9.8999999E-03   -4.5902084E-07
  9.9350000E-03   -5.1276947E-07
  9.9700000E-03   -5.7189322E-07
  1.0005000E-02   -6.3704670E-07
  1.0040000E-02   -7.0907697E-07
  1.0075000E-02   -7.8848399E-07
  1.0110000E-02   -8.7548210E-07
  1.0145000E-02   -9.7072450E-07
  1.0180000E-02   -1.0753600E-06
  1.0215000E-02   -1.1902046E-06
  1.0250000E-02   -1.3156032E-06
  1.0285000E-02   -1.4522409E-06
  1.0320000E-02   -1.6013553E-06
  1.0355000E-02   -1.7640962E-06
  1.0390000E-02   -1.9412319E-06
  1.0425000E-02   -2.1335456E-06
  1.0460000E-02   -2.3422265E-06
  1.0495000E-02   -2.5686554E-06
  1.0530000E-02   -2.8139532E-06
  1.0565000E-02   -3.0791753E-06
  1.0600000E-02   -3.3657050E-06
  1.0635000E-02   -3.6749336E-06
  1.0670000E-02   -4.0081090E-06
  1.0705000E-02   -4.3668215E-06
  1.0740000E-02   -4.7527633E-06
  1.0775000E-02   -5.1671827E-06
  1.0810000E-02   -5.6114250E-06
  1.0845000E-02   -6.0873899E-06
  1.0880000E-02   -6.5969903E-06
  1.0915000E-02   -7.1418194E-06
  1.0950000E-02   -7.7232726E-06
  1.0985000E-02   -8.3428849E-06
  1.1020000E-02   -9.0028680E-06
  1.1055000E-02   -9.7054835E-06
  1.1090000E-02   -1.0451985E-05
  1.1125000E-02   -1.1243630E-05
  1.1160000E-02   -1.2082734E-05
  1.1195000E-02   -1.2971420E-05
  1.1230000E-02   -1.3911072E-05
  1.1265000E-02   -1.4903294E-05
  1.1300000E-02   -1.5949792E-05
  1.1335000E-02   -1.7052173E-05
  1.1370000E-02   -1.8212315E-05
  1.1405000E-02   -1.9431613E-05
  1.1440000E-02   -2.0711079E-05
  1.1475000E-02   -2.2052465E-05
  1.1510000E-02   -2.3457160E-05
  1.1545000E-02   -2.4925585E-05
  1.1580000E-02   -2.6459003E-05
  1.1615000E-02   -2.8058917E-05
  1.1650000E-02   -2.9725326E-05
  1.1685000E-02   -3.1458410E-05
  1.1720000E-02   -3.3259155E-05
  1.1755000E-02   -3.5127639E-05
  1.1790000E-02   -3.7063677E-05
  1.1825000E-02   -3.9067210E-05
  1.1860000E-02   -4.1137166E-05
  1.1895000E-02   -4.3272932E-05
  1.1930000E-02   -4.5474517E-05
  1.1965000E-02   -4.7739879E-05
  1.2000000E-02   -5.0066697E-05
  1.2035000E-02   -5.2454459E-05
  1.2070000E-02   -5.4901015E-05
  1.2105000E-02   -5.7402620E-05
  1.2140000E-02   -5.9957467E-05
  1.2175000E-02   -6.2563398E-05
  1.2210000E-02   -6.5216060E-05
  1.2245000E-02   -6.7911744E-05
  1.2280000E-02   -7.0646900E-05
  1.2315000E-02   -7.3417061E-05
  1.2350000E-02   -7.6218443E-05
  1.2385000E-02   -7.9045785E-05
  1.2420000E-02   -8.1892067E-05
  1.2455000E-02   -8.4753126E-05
  1.2490000E-02   -8.7624983E-05
  1.2525000E-02   -9.0499467E-05
  1.2560000E-02   -9.3369439E-05
  1.2595000E-02   -9.6230346E-05
  1.2630000E-02   -9.9074910E-05
  1.2665000E-02   -1.0189522E-04
  1.2700000E-02   -1.0468504E-04
  1.2735000E-02   -1.0743623E-04
  1.2770000E-02   -1.1014062E-04
  1.2805000E-02   -1.1279189E-04
  1.2840000E-02   -1.1538142E-04
  1.2875000E-02   -1.1790012E-04
  1.2910000E-02   -1.2034201E-04
  1.2945000E-02   -1.2269920E-04
  1.2980000E-02   -1.2496181E-04
  1.3015000E-02   -1.2712293E-04
  1.3050000E-02   -1.2917527E-04
  1.3085000E-02   -1.3110985E-04
  1.3120000E-02   -1.3292013E-04
  1.3155000E-02   -1.3459897E-04
  1.3190000E-02   -1.3613721E-04
  1.3225000E-02   -1.3752926E-04
  1.3260000E-02   -1.3876987E-04
  1.3295000E-02   -1.3985076E-04
  1.3330000E-02   -1.4076615E-04
  1.3365000E-02   -1.4151230E-04
  1.3400000E-02   -1.4208282E-04
  1.3435000E-02   -1.4247299E-04
  1.3470000E-02   -1.4268007E-04
  1.3505000E-02   -1.4269908E-04
  1.3540000E-02   -1.4252690E-04
  1.3575000E-02   -1.4216351E-04
  1.3610000E-02   -1.4160604E-04
  1.3645000E-02   -1.4085170E-04
  1.3680000E-02   -1.3990153E-04
  1.3715000E-02   -1.3875640E-04
  1.3750000E-02   -1.3741672E-04
  1.3785000E-02   -1.3588442E-04
  1.3820000E-02   -1.3416083E-04
  1.3855000E-02   -1.3224929E-04
  1.3890000E-02   -1.3015562E-04
  1.3925000E-02   -1.2788287E-04
  1.3960000E-02   -1.2543428E-04
  1.3995000E-02   -1.2281805E-04
  1.4030000E-02   -1.2004156E-04
  1.4065000E-02   -1.1710992E-04
  1.4100000E-02   -1.1403126E-04
  1.4135000E-02   -1.1081495E-04
  1.4170000E-02   -1.0746924E-04
  1.4205000E-02   -1.0400394E-04
  1.4240000E-02   -1.0042931E-04
  1.4275000E-02   -9.6755160E-05
  1.4310000E-02   -9.2993039E-05
  1.4345000E-02   -8.9154157E-05
  1.4380000E-02   -8.5248961E-05
  1.4415000E-02   -8.1290149E-05
  1.4450000E-02   -7.7290359E-05
  1.4485000E-02   -7.3260890E-05
  1.4520000E-02   -6.9214322E-05
  1.4555000E-02   -6.5162960E-05
  1.4590000E-02   -6.1118182E-05
  1.4625000E-02   -5.7093221E-05
  1.4660000E-02   -5.3100819E-05
  1.4695000E-02   -4.9151473E-05
  1.4730000E-02   -4.5257031E-05
  1.4765000E-02   -4.1429445E-05
  1.4800000E-02   -3.7678739E-05
  1.4835000E-02   -3.4015800E-05
  1.4870000E-02   -3.0451247E-05
  1.4905000E-02   -2.6993761E-05
  1.4940000E-02   -2.3652665E-05
  1.4975000E-02   -2.0436211E-05
  1.5010000E-02   -1.7350494E-05
  1.5045000E-02   -1.4403685E-05
  1.5080000E-02   -1.1603355E-05
  1.5115000E-02   -8.9527884E-06
  1.5150000E-02   -6.4563696E-06
  1.5185000E-02   -4.1197313E-06
  1.5220000E-02   -1.9447282E-06
  1.5255000E-02    6.7266470E-08
  1.5290000E-02    1.9137099E-06
  1.5325000E-02    3.5943831E-06
  1.5360000E-02    5.1094312E-06
  1.5395000E-02    6.4595224E-06
  1.5430000E-02    7.6486886E-06
  1.5465000E-02    8.6793734E-06
  1.5500000E-02    9.5522373E-06
  1.5535000E-02    1.0273174E-05
  1.5570000E-02    1.0849139E-05
  1.5605000E-02    1.1283196E-05
  1.5640000E-02    1.1581183E-05
  1.5675001E-02    1.1751904E-05
  1.5710000E-02    1.1801494E-05
  1.5745001E-02    1.1736838E-05
  1.5780000E-02    1.1567175E-05
  1.5814999E-02    1.1300092E-05
  1.5850000E-02    1.0943769E-05
  1.5884999E-02    1.0508577E-05
  1.5920000E-02    1.0003231E-05
  1.5954999E-02    9.4355328E-06
  1.5990000E-02    8.8148408E-06
  1.6024999E-02    8.1507060E-06
  1.6060000E-02    7.4526733E-06
  1.6094999E-02    6.7298570E-06
  1.6130000E-02    5.9893700E-06
  1.6164999E-02    5.2389437E-06
  1.6200000E-02    4.4885983E-06
  1.6235000E-02    3.7464345E-06
  1.6270000E-02    3.0175372E-06
  1.6305000E-02    2.3085231E-06
  1.6340001E-02    1.6278082E-06
  1.6375000E-02    9.8107353E-07
  1.6410001E-02    3.7179615E-07
  1.6445000E-02   -1.9464291E-07
  1.6480001E-02   -7.1302583E-07
  1.6515000E-02   -1.1813279E-06
  1.6550001E-02   -1.5968443E-06
  1.6585000E-02   -1.9554809E-06
  1.6620001E-02   -2.2564291E-06
  1.6655000E-02   -2.4999676E-06
  1.6690001E-02   -2.6842131E-06
  1.6725000E-02   -2.8089062E-06
  1.6759999E-02   -2.8753400E-06
  1.6795000E-02   -2.8838526E-06
  1.6829999E-02   -2.8367911E-06
  1.6865000E-02   -2.7372801E-06
  1.6899999E-02   -2.5860718E-06
  1.6935000E-02   -2.3860471E-06
  1.6969999E-02   -2.1421076E-06
  1.7005000E-02   -1.8563940E-06
  1.7039999E-02   -1.5322609E-06
  1.7075000E-02   -1.1754616E-06
  1.7109999E-02   -7.8897654E-07
  1.7145000E-02   -3.7671788E-07
  1.7180000E-02    5.4585232E-08
  1.7215000E-02    5.0215709E-07
  1.7250000E-02    9.6380916E-07
  1.7285001E-02    1.4322827E-06
  1.7320000E-02    1.9024064E-06
  1.7355001E-02    2.3730220E-06
  1.7390000E-02    2.8399479E-06
  1.7425001E-02    3.2972371E-06
  1.7460000E-02    3.7414366E-06
  1.7495001E-02    4.1705857E-06
  1.7530000E-02    4.5827292E-06
  1.7565001E-02    4.9741766E-06
  1.7600000E-02    5.3407234E-06
  1.7635001E-02    5.6819763E-06
  1.7670000E-02    5.9983136E-06
  1.7704999E-02    6.2864210E-06
  1.7740000E-02    6.5437880E-06
  1.7774999E-02    6.7715050E-06
  1.7810000E-02    6.9707107E-06
  1.7844999E-02    7.1407740E-06
  1.7880000E-02    7.2800040E-06
  1.7914999E-02    7.3887427E-06
  1.7950000E-02    7.4708732E-06
  1.7984999E-02    7.5284215E-06
  1.8020000E-02    7.5601733E-06
  1.8054999E-02    7.5671583E-06
  1.8090000E-02    7.5522612E-06
  1.8124999E-02    7.5183475E-06
  1.8160000E-02    7.4688874E-06
  1.8195000E-02    7.4042446E-06
  1.8230001E-02    7.3237284E-06
  1.8265000E-02    7.2326839E-06
  1.8300001E-02    7.1357631E-06
  1.8335000E-02    7.0316496E-06
  1.8370001E-02    6.9219777E-06
  1.8405000E-02    6.8107661E-06
  1.8440001E-02    6.6985740E-06
  1.8475000E-02    6.5879080E-06
  1.8510001E-02    6.4813207E-06
  1.8545000E-02    6.3763000E-06
  1.8580001E-02    6.2743475E-06
  1.8615000E-02    6.1806650E-06
  1.8650001E-02    6.0939760E-06
  1.8685000E-02    6.0124876E-06
  1.8719999E-02    5.9377730E-06
  1.8755000E-02    5.8676760E-06
  1.8789999E-02    5.8012142E-06
  1.8825000E-02    5.7411817E-06
  1.8859999E-02    5.6847821E-06
  1.8895000E-02    5.6277072E-06
  1.8929999E-02    5.5707237E-06
  1.8965000E-02    5.5120940E-06
  1.8999999E-02    5.4483203E-06
  1.9035000E-02    5.3788249E-06
  1.9069999E-02    5.3002645E-06
  1.9105000E-02    5.2085697E-06
  1.9140000E-02    5.1036091E-06
  1.9175000E-02    4.9819678E-06
  1.9210000E-02    4.8383972E-06
  1.9245001E-02    4.6727209E-06
  1.9280000E-02    4.4826288E-06
  1.9315001E-02    4.2633001E-06
  1.9350000E-02    4.0144382E-06
  1.9385001E-02    3.7341911E-06
  1.9420000E-02    3.4177594E-06
  1.9455001E-02    3.0645137E-06
  1.9490000E-02    2.6739335E-06
  1.9525001E-02    2.2440288E-06
  1.9560000E-02    1.7762377E-06
  1.9595001E-02    1.2694591E-06
  1.9630000E-02    7.1996385E-07
  1.9664999E-02    1.3036178E-07
  1.9700000E-02   -4.9654875E-07
  1.9734999E-02   -1.1614094E-06
  1.9770000E-02   -1.8600298E-06
  1.9804999E-02   -2.5888437E-06
  1.9840000E-02   -3.3495407E-06
  1.9874999E-02   -4.1380704E-06
  1.9910000E-02   -4.9463965E-06
  1.9944999E-02   -5.7711122E-06
  1.9980000E-02   -6.6075854E-06
  2.0014999E-02   -7.4496265E-06
  2.0050000E-02   -8.2931147E-06
  2.0085000E-02   -9.1298043E-06
  2.0120000E-02   -9.9505460E-06
  2.0155000E-02   -1.0751725E-05
  2.0190001E-02   -1.1525472E-05
  2.0225000E-02   -1.2259229E-05
  2.0260001E-02   -1.2946908E-05
  2.0295000E-02   -1.3583935E-05
  2.0330001E-02   -1.4159636E-05
  2.0365000E-02   -1.4662775E-05
  2.0400001E-02   -1.5083726E-05
  2.0435000E-02   -1.5414544E-05
  2.0470001E-02   -1.5649604E-05
  2.0505000E-02   -1.5781123E-05
  2.0540001E-02   -1.5797734E-05
  2.0575000E-02   -1.5690857E-05
  2.0609999E-02   -1.5454942E-05
  2.0645000E-02   -1.5082513E-05
  2.0679999E-02   -1.4566262E-05
  2.0715000E-02   -1.3901898E-05
  2.0749999E-02   -1.3085224E-05
  2.0785000E-02   -1.2111024E-05
  2.0819999E-02   -1.0975022E-05
  2.0855000E-02   -9.6737276E-06
  2.0889999E-02   -8.2053248E-06
  2.0925000E-02   -6.5716276E-06
  2.0959999E-02   -4.7747935E-06
  2.0995000E-02   -2.8141199E-06
  2.1029999E-02   -6.8885254E-07
  2.1065000E-02    1.5964454E-06
  2.1100000E-02    4.0341656E-06
  2.1135001E-02    6.6170519E-06
  2.1170000E-02    9.3387107E-06
  2.1205001E-02    1.2192069E-05
  2.1240000E-02    1.5168809E-05
  2.1275001E-02    1.8258319E-05
  2.1310000E-02    2.1446986E-05
  2.1345001E-02    2.4722091E-05
  2.1380000E-02    2.8071079E-05
  2.1415001E-02    3.1478983E-05
  2.1450000E-02    3.4927834E-05
  2.1485001E-02    3.8404822E-05
  2.1520000E-02    4.1898111E-05
  2.1555001E-02    4.5386667E-05
  2.1590000E-02    4.8847691E-05
  2.1624999E-02    5.2265816E-05
  2.1660000E-02    5.5626817E-05
  2.1694999E-02    5.8912963E-05
  2.1730000E-02    6.2105311E-05
  2.1764999E-02    6.5183587E-05
  2.1800000E-02    6.8132060E-05
  2.1834999E-02    7.0937742E-05
  2.1870000E-02    7.3580581E-05
  2.1904999E-02    7.6041928E-05
  2.1940000E-02    7.8312441E-05
  2.1974999E-02    8.0379963E-05
  2.2010000E-02    8.2226390E-05
  2.2045000E-02    8.3841987E-05
  2.2080000E-02    8.5220971E-05
  2.2115000E-02    8.6351865E-05
  2.2150001E-02    8.7227010E-05
  2.2185000E-02    8.7843124E-05
  2.2220001E-02    8.8191970E-05
  2.2255000E-02    8.8268112E-05
  2.2290001E-02    8.8075984E-05
  2.2325000E-02    8.7618122E-05
  2.2360001E-02    8.6892847E-05
  2.2395000E-02    8.5901789E-05
  2.2430001E-02    8.4648032E-05
  2.2465000E-02    8.3140483E-05
  2.2500001E-02    8.1394333E-05
  2.2535000E-02    7.9414087E-05
  2.2569999E-02    7.7200311E-05
  2.2605000E-02    7.4768890E-05
  2.2639999E-02    7.2139628E-05
  2.2675000E-02    6.9323520E-05
  2.2709999E-02    6.6331093E-05
  2.2745000E-02    6.3176405E-05
  2.2779999E-02    5.9875270E-05
  2.2815000E-02    5.6446468E-05
  2.2849999E-02    5.2906482E-05
  2.2885000E-02    4.9264796E-05
  2.2919999E-02    4.5537916E-05
  2.2955000E-02    4.1751890E-05
  2.2990000E-02    3.7922448E-05
  2.3025000E-02    3.4054843E-05
  2.3060000E-02    3.0165909E-05
  2.3095001E-02    2.6276128E-05
  2.3130000E-02    2.2398886E-05
  2.3165001E-02    1.8548952E-05
  2.3200000E-02    1.4733586E-05
  2.3235001E-02    1.0962133E-05
  2.3270000E-02    7.2597604E-06
  2.3305001E-02    3.6373776E-06
  2.3340000E-02    9.0698499E-08
  2.3375001E-02   -3.3693977E-06
  2.3410000E-02   -6.7297387E-06
  2.3445001E-02   -9.9872559E-06
  2.3480000E-02   -1.3131536E-05
  2.3514999E-02   -1.6153595E-05
  2.3550000E-02   -1.9056728E-05
  2.3584999E-02   -2.1839513E-05
  2.3620000E-02   -2.4497022E-05
  2.3654999E-02   -2.7026214E-05
  2.3690000E-02   -2.9423225E-05
  2.3724999E-02   -3.1685922E-05
  2.3760000E-02   -3.3817352E-05
  2.3794999E-02   -3.5824363E-05
  2.3830000E-02   -3.7709236E-05
  2.3864999E-02   -3.9466908E-05
  2.3900000E-02   -4.1095896E-05
  2.3934999E-02   -4.2603027E-05
  2.3970000E-02   -4.3992375E-05
  2.4005000E-02   -4.5266388E-05
  2.4040001E-02   -4.6431043E-05
  2.4075000E-02   -4.7487079E-05
  2.4110001E-02   -4.8436017E-05
  2.4145000E-02   -4.9287610E-05
  2.4180001E-02   -5.0043574E-05
  2.4215000E-02   -5.0703689E-05
  2.4250001E-02   -5.1279061E-05
  2.4285000E-02   -5.1771254E-05
  2.4320001E-02   -5.2175688E-05
  2.4355000E-02   -5.2502775E-05
  2.4390001E-02   -5.2761443E-05
  2.4425000E-02   -5.2952313E-05
  2.4460001E-02   -5.3084132E-05
  2.4495000E-02   -5.3157732E-05
  2.4529999E-02   -5.3165233E-05
  2.4565000E-02   -5.3115269E-05
  2.4599999E-02   -5.3020471E-05
  2.4635000E-02   -5.2884967E-05
  2.4669999E-02   -5.2713895E-05
  2.4705000E-02   -5.2502171E-05
  2.4739999E-02   -5.2241230E-05
  2.4775000E-02   -5.1945310E-05
  2.4809999E-02   -5.1629755E-05
  2.4845000E-02   -5.1291565E-05
  2.4879999E-02   -5.0931034E-05
  2.4915000E-02   -5.0550105E-05
  2.4950000E-02   -5.0144925E-05
  2.4985000E-02   -4.9723323E-05
  2.5020000E-02   -4.9292572E-05
  2.5055001E-02   -4.8845748E-05
  2.5090000E-02   -4.8389014E-05
  2.5125001E-02   -4.7934485E-05
  2.5160000E-02   -4.7471312E-05
  2.5195001E-02   -4.6993704E-05
  2.5230000E-02   -4.6518755E-05
  2.5265001E-02   -4.6048066E-05
  2.5300000E-02   -4.5567940E-05
  2.5335001E-02   -4.5082736E-05
  2.5370000E-02   -4.4601165E-05
  2.5405001E-02   -4.4117809E-05
  2.5440000E-02   -4.3631102E-05
  2.5474999E-02   -4.3144035E-05
  2.5510000E-02   -4.2652944E-05
  2.5544999E-02   -4.2157051E-05
  2.5580000E-02   -4.1657928E-05
  2.5614999E-02   -4.1151372E-05
  2.5650000E-02   -4.0637467E-05
  2.5684999E-02   -4.0119219E-05
  2.5720000E-02   -3.9589933E-05
  2.5754999E-02   -3.9042792E-05
  2.5790000E-02   -3.8478956E-05
  2.5824999E-02   -3.7899092E-05
  2.5860000E-02   -3.7302863E-05
  2.5895000E-02   -3.6690355E-05
  2.5930000E-02   -3.6055291E-05
  2.5965000E-02   -3.5391378E-05
  2.6000001E-02   -3.4700144E-05
  2.6035000E-02   -3.3983539E-05
  2.6070001E-02   -3.3237804E-05
  2.6105000E-02   -3.2457112E-05
  2.6140001E-02   -3.1643489E-05
  2.6175000E-02   -3.0802043E-05
  2.6210001E-02   -2.9927323E-05
  2.6245000E-02   -2.9013136E-05
  2.6280001E-02   -2.8064911E-05
  2.6315000E-02   -2.7082642E-05
  2.6350001E-02   -2.6060130E-05
  2.6385000E-02   -2.5003892E-05
  2.6419999E-02   -2.3918641E-05
  2.6455000E-02   -2.2798020E-05
  2.6489999E-02   -2.1643600E-05
  2.6525000E-02   -2.0459811E-05
  2.6559999E-02   -1.9242636E-05
  2.6595000E-02   -1.7997176E-05
  2.6629999E-02   -1.6732591E-05
  2.6665000E-02   -1.5443888E-05
  2.6699999E-02   -1.4131061E-05
  2.6735000E-02   -1.2804947E-05
  2.6769999E-02   -1.1465877E-05
  2.6805000E-02   -1.0112373E-05
  2.6839999E-02   -8.7500375E-06
  2.6875000E-02   -7.3791548E-06
  2.6910000E-02   -6.0014477E-06
  2.6945001E-02   -4.6273076E-06
  2.6980000E-02   -3.2593960E-06