 -4.8000002E-03    1.0000000E-24
 -4.7650002E-03    1.0000002E-24
 -4.7300002E-03    1.0000001E-24
 -4.6950001E-03    1.0000002E-24
 -4.6600001E-03    1.0000002E-24
 -4.6250001E-03    1.0000000E-24
 -4.5900000E-03    1.0000000E-24
 -4.5550000E-03    1.0000001E-24
 -4.5200000E-03    1.0000001E-24
 -4.4849999E-03    9.9999972E-25
 -4.4499999E-03    1.0000000E-24
 -4.4149999E-03    1.0000005E-24
 -4.3799998E-03    1.0000005E-24
 -4.3449998E-03    9.9999982E-25
 -4.3100002E-03    9.9999982E-25
 -4.2750002E-03    1.0000006E-24
 -4.2400002E-03    1.0000005E-24
 -4.2050001E-03    9.9999972E-25
 -4.1700001E-03    9.9999963E-25
 -4.1350001E-03    1.0000002E-24
 -4.1000000E-03    1.0000005E-24
 -4.0650000E-03    1.0000001E-24
 -4.0300000E-03    9.9999972E-25
 -3.9949999E-03    9.9999972E-25
 -3.9599999E-03    1.0000000E-24
 -3.9249999E-03    1.0000004E-24
 -3.8900001E-03    1.0000001E-24
 -3.8550000E-03    9.9999982E-25
 -3.8200000E-03    1.0000002E-24
 -3.7849999E-03    1.0000004E-24
 -3.7499999E-03    1.0000000E-24
 -3.7150001E-03    9.9999943E-25
 -3.6800001E-03    1.0000000E-24
 -3.6450000E-03    1.0000005E-24
 -3.6100000E-03    1.0000001E-24
 -3.5750000E-03    9.9999972E-25
 -3.5399999E-03    1.0000001E-24
 -3.5049999E-03    1.0000005E-24
 -3.4700001E-03    1.0000004E-24
 -3.4350001E-03    9.9999972E-25
 -3.4000000E-03    9.9999972E-25
 -3.3650000E-03    1.0000000E-24
 -3.3300000E-03    9.9999972E-25
 -3.2949999E-03    1.0000001E-24
 -3.2599999E-03    1.0000006E-24
 -3.2250001E-03    1.0000001E-24
 -3.1900001E-03    9.9999972E-25
 -3.1550000E-03    1.0000003E-24
 -3.1200000E-03    1.0000003E-24
 -3.0850000E-03    9.9999953E-25
 -3.0499999E-03    9.9999982E-25
 -3.0149999E-03    1.0000012E-24
 -2.9800001E-03    1.0000008E-24
 -2.9450001E-03    9.9999913E-25
 -2.9100000E-03    9.9999953E-25
 -2.8750000E-03    1.0000005E-24
 -2.8400000E-03    9.9999953E-25
 -2.8049999E-03    9.9999913E-25
 -2.7699999E-03    1.0000007E-24
 -2.7350001E-03    1.0000010E-24
 -2.7000001E-03    9.9999953E-25
 -2.6650000E-03    9.9999972E-25
 -2.6300000E-03    1.0000006E-24
 -2.5950000E-03    9.9999953E-25
 -2.5599999E-03    9.9999943E-25
 -2.5249999E-03    1.0000012E-24
 -2.4900001E-03    1.0000010E-24
 -2.4550001E-03    9.9999933E-25
 -2.4200000E-03    9.9999982E-25
 -2.3850000E-03    1.0000011E-24
 -2.3500000E-03    9.9999943E-25
 -2.3149999E-03    9.9999884E-25
 -2.2799999E-03    1.0000009E-24
 -2.2450001E-03    1.0000007E-24
 -2.2100001E-03    9.9999893E-25
 -2.1750000E-03    9.9999982E-25
 -2.1400000E-03    1.0000010E-24
 -2.1050000E-03    9.9999972E-25
 -2.0699999E-03    9.9999903E-25
 -2.0349999E-03    1.0000002E-24
 -2.0000001E-03    1.0000006E-24
 -1.9650001E-03    1.0000001E-24
 -1.9300000E-03    1.0000005E-24
 -1.8950000E-03    1.0000006E-24
 -1.8600000E-03    9.9999982E-25
 -1.8250000E-03    9.9999933E-25
 -1.7900000E-03    9.9999972E-25
 -1.7550000E-03    1.0000004E-24
 -1.7199999E-03    1.0000008E-24
 -1.6850000E-03    1.0000015E-24
 -1.6500000E-03    1.0000008E-24
 -1.6150000E-03    9.9999893E-25
 -1.5800000E-03    9.9999844E-25
 -1.5450000E-03    1.0000001E-24
 -1.5100000E-03    1.0000007E-24
 -1.4750001E-03    9.9999933E-25
 -1.4400000E-03    9.9999903E-25
 -1.4050000E-03    1.0000005E-24
 -1.3700000E-03    1.0000009E-24
 -1.3350000E-03    9.9999953E-25
 -1.3000000E-03    9.9999913E-25
 -1.2650000E-03    1.0000006E-24
 -1.2300001E-03    1.0000023E-24
 -1.1950000E-03    1.0000007E-24
 -1.1600000E-03    9.9999805E-25
 -1.1250000E-03    1.0000011E-24
 -1.0900000E-03    1.0000026E-24
 -1.0550000E-03    9.9999824E-25
 -1.0200000E-03    9.9999874E-25
 -9.8500005E-04    1.0000044E-24
 -9.5000002E-04    9.9999647E-25
 -9.1499998E-04    9.9999095E-25
 -8.8000001E-04    1.0000108E-24
 -8.4499997E-04    1.0000045E-24
 -8.1000000E-04    9.9998424E-25
 -7.7500002E-04    1.0000232E-24
 -7.3999999E-04    1.0000056E-24
 -7.0500001E-04    9.9993297E-25
 -6.6999998E-04    9.9998523E-25
 -6.3500000E-04    1.0000653E-24
 -6.0000003E-04    9.9993366E-25
 -5.6499999E-04    9.9985714E-25
 -5.3000002E-04    1.0001862E-24
 -4.9499999E-04    1.0001210E-24
 -4.6000001E-04    9.9893476E-25
 -4.2500001E-04    9.9937406E-25
 -3.9000000E-04    1.0019920E-24
 -3.5500000E-04    9.9950057E-25
 -3.1999999E-04    9.9779831E-25
 -2.8499999E-04    1.0020463E-24
 -2.5000001E-04    1.0035046E-24
 -2.1499999E-04    9.9748158E-25
 -1.8000000E-04    9.9652282E-25
 -1.4500000E-04    9.9940660E-25
 -1.1000000E-04    9.9995318E-25
 -7.5000004E-05    1.0066428E-24
 -3.9999999E-05    1.0002369E-24
 -4.9999999E-06    9.8420998E-25
  2.9999999E-05    9.8960155E-25
  6.5000000E-05    1.0360254E-24
  9.9999997E-05    1.0182365E-24
  1.3499999E-04    9.5383943E-25
  1.7000000E-04    1.0111944E-24
  2.0500000E-04    1.1144726E-24
  2.3999999E-04    9.9607396E-25
  2.7500000E-04    8.6865271E-25
  3.1000000E-04    1.0237487E-24
  3.4500001E-04    1.1748052E-24
  3.8000001E-04    8.3035844E-25
  4.1499999E-04    6.2339487E-25
  4.4999999E-04    1.3768463E-24
  4.8500000E-04    1.7002587E-24
  5.2000000E-04    8.9499238E-25
  5.5499998E-04    5.0425887E-25
  5.9000001E-04    1.3789598E-24
  6.2499999E-04    2.4543902E-24
  6.6000002E-04   -2.1047479E-25
  6.9500000E-04   -8.1497161E-25
  7.3000003E-04    3.0879810E-24
  7.6500000E-04    2.5559125E-24
  7.9999998E-04   -1.7045036E-24
  8.3500001E-04   -1.4013106E-24
  8.6999999E-04   -4.2708458E-26
  9.0500002E-04    2.0970236E-24
  9.4000000E-04    5.7814148E-24
  9.7499997E-04    9.1769964E-24
  1.0100000E-03   -5.8382101E-24
  1.0450000E-03   -7.1523249E-24
  1.0800000E-03    1.7579152E-23
  1.1150000E-03    1.5980216E-23
  1.1500000E-03   -2.5521378E-23
  1.1849999E-03   -3.2380459E-23
  1.2200000E-03    4.5115684E-23
  1.2550000E-03    4.5549327E-23
  1.2900000E-03   -6.5732718E-23
  1.3250000E-03   -7.1792022E-23
  1.3600000E-03    1.0019901E-22
  1.3950000E-03    1.1208557E-22
  1.4299999E-03   -1.1216775E-22
  1.4650000E-03   -9.4885054E-23
  1.5000000E-03    3.1238395E-22
  1.5350000E-03    1.7644391E-22
  1.5700000E-03   -2.8230684E-22
  1.6050000E-03   -3.8187419E-22
  1.6400000E-03    7.6684620E-23
  1.6749999E-03    1.9704729E-22
  1.7100000E-03   -1.3525268E-22
  1.7450000E-03    9.4421349E-24
  1.7800000E-03   -5.0907923E-22
  1.8150000E-03    1.3129749E-22
  1.8500000E-03    8.8431272E-22
  1.8850000E-03   -9.3418246E-22
  1.9200000E-03   -2.1537301E-21
  1.9550000E-03    1.1793625E-21
  1.9900000E-03    1.1768352E-21
  2.0250001E-03   -1.8216446E-21
  2.0600001E-03   -2.0389142E-21
  2.0949999E-03   -1.0449028E-21
  2.1299999E-03    5.0223781E-21
  2.1650000E-03    2.0339303E-21
  2.2000000E-03   -7.8467702E-21
  2.2350000E-03   -2.8743533E-21
  2.2700001E-03    1.2365664E-20
  2.3050001E-03    3.9716055E-21
  2.3399999E-03   -1.3711667E-20
  2.3749999E-03   -2.0023610E-20
  2.4100000E-03    1.4330266E-20
  2.4450000E-03    3.6108505E-20
  2.4800000E-03   -1.4165563E-20
  2.5150001E-03   -3.4701855E-20
  2.5500001E-03    2.2068767E-20
  2.5849999E-03    6.0397109E-20
  2.6199999E-03    1.7784270E-20
  2.6550000E-03   -4.4746400E-20
  2.6900000E-03   -1.6599891E-20
  2.7250000E-03    8.4344576E-20
  2.7600001E-03    6.4982831E-20
  2.7950001E-03   -9.9140214E-20
  2.8299999E-03   -8.1973928E-20
  2.8649999E-03    7.6906051E-20
  2.9000000E-03    1.3935269E-19
  2.9350000E-03   -1.5864948E-20
  2.9700000E-03   -2.0005645E-19
  3.0050001E-03   -3.1230650E-20
  3.0400001E-03    1.3281921E-19
  3.0749999E-03    6.5933138E-20
  3.1099999E-03   -2.0934353E-19
  3.1450000E-03   -1.7849512E-19
  3.1800000E-03    2.0600863E-19
  3.2150000E-03    3.1651759E-19
  3.2500001E-03    6.9557385E-20
  3.2850001E-03   -6.1564287E-19
  3.3199999E-03   -2.4507151E-19
  3.3549999E-03    9.8877334E-19
  3.3900000E-03    3.7926187E-19
  3.4250000E-03   -1.4261536E-18
  3.4600000E-03   -7.9299660E-19
  3.4950001E-03    1.9624281E-18
  3.5300001E-03    1.3491503E-18
  3.5649999E-03   -2.2203236E-18
  3.5999999E-03   -2.1373518E-18
  3.6350000E-03    1.9961450E-18
  3.6700000E-03    2.9069633E-18
  3.7050000E-03   -2.2360987E-18
  3.7400001E-03   -3.5394926E-18
  3.7750001E-03    1.8845999E-18
  3.8099999E-03    5.1828618E-18
  3.8449999E-03    1.2996766E-19
  3.8800000E-03   -6.2298322E-18
  3.9149998E-03   -3.0893889E-18
  3.9499998E-03    6.5432898E-18
  3.9849998E-03    7.0922697E-18
  4.0199999E-03   -4.9057998E-18
  4.0549999E-03   -1.1138085E-17
  4.0899999E-03    6.9219844E-19
  4.1250000E-03    1.8855653E-17
  4.1600000E-03    1.4578191E-17
  4.1950000E-03   -2.0045088E-17
  4.2300001E-03   -3.3485849E-17
  4.2650001E-03    1.7481728E-17
  4.3000001E-03    6.1729591E-17
  4.3350002E-03    1.6263480E-18
  4.3700002E-03   -9.1525569E-17
  4.4049998E-03   -3.6236963E-17
  4.4399998E-03    1.2360091E-16
  4.4749998E-03    1.0068326E-16
  4.5099999E-03   -1.3568265E-16
  4.5449999E-03   -1.8982739E-16
  4.5799999E-03    1.1332635E-16
  4.6150000E-03    3.0228824E-16
  4.6500000E-03   -3.4953460E-17
  4.6850001E-03   -4.1475439E-16
  4.7200001E-03   -1.2165141E-16
  4.7550001E-03    4.9180882E-16
  4.7900002E-03    3.7238329E-16
  4.8250002E-03   -4.6739913E-16
  4.8600002E-03   -6.9461260E-16
  4.8949998E-03    2.9712391E-16
  4.9299998E-03    1.0631604E-15
  4.9649999E-03    1.2244594E-16
  4.9999999E-03   -1.3684714E-15
  5.0349999E-03   -8.1736737E-16
  5.0700000E-03    1.4743207E-15
  5.1050000E-03    1.7971860E-15
  5.1400000E-03   -1.1959001E-15
  5.1750001E-03   -2.9638695E-15
  5.2100001E-03    3.5514572E-16
  5.2450001E-03    4.1395940E-15
  5.2800002E-03    1.2097276E-15
  5.3150002E-03   -5.0027629E-15
  5.3500002E-03   -3.5534362E-15
  5.3849998E-03    5.1128167E-15
  5.4199998E-03    6.5287330E-15
  5.4549999E-03   -4.0135996E-15
  5.4899999E-03   -9.7553818E-15
  5.5249999E-03    1.2833951E-15
  5.5600000E-03    1.2560550E-14
  5.5950000E-03    3.2769462E-15
  5.6300000E-03   -1.4042083E-14
  5.6650001E-03   -9.5139350E-15
  5.7000001E-03    1.3150469E-14
  5.7350001E-03    1.6784244E-14
  5.7700002E-03   -8.8992204E-15
  5.8050002E-03   -2.3829241E-14
  5.8400002E-03    6.8950520E-16
  5.8749998E-03    2.8895726E-14
  5.9099998E-03    1.1424577E-14
  5.9449999E-03   -2.9923966E-14
  5.9799999E-03   -2.6474803E-14
  6.0149999E-03    2.4863658E-14
  6.0500000E-03    4.2340887E-14
  6.0850000E-03   -1.2244286E-14
  6.1200000E-03   -5.5825278E-14
  6.1550001E-03   -8.1654332E-15
  6.1900001E-03    6.3081241E-14
  6.2250001E-03    3.4882704E-14
  6.2600002E-03   -6.0289691E-14
  6.2950002E-03   -6.4390177E-14
  6.3299998E-03    4.4710289E-14
  6.3649998E-03    9.1505064E-14
  6.3999998E-03   -1.5519095E-14
  6.4349999E-03   -1.0986951E-13
  6.4699999E-03   -2.5388518E-14
  6.5049999E-03    1.1303636E-13
  6.5400000E-03    7.2934572E-14
  6.5750000E-03   -9.5939458E-14
  6.6100000E-03   -1.1873509E-13
  6.6450001E-03    5.6985815E-14
  6.6800001E-03    1.5260694E-13
  6.7150001E-03    6.0338276E-16
  6.7500002E-03   -1.6486819E-13
  6.7850002E-03   -6.8586792E-14
  6.8199998E-03    1.4894597E-13
  6.8549998E-03    1.3490400E-13
  6.8899998E-03   -1.0323085E-13
  6.9249999E-03   -1.8541464E-13
  6.9599999E-03    3.2557724E-14
  6.9949999E-03    2.0642566E-13
  7.0300000E-03    5.0772459E-14
  7.0650000E-03   -1.8855772E-13
  7.1000000E-03   -1.2784118E-13
  7.1350001E-03    1.3149723E-13
  7.1700001E-03    1.7746652E-13
  7.2050001E-03   -4.6163428E-14
  7.2400002E-03   -1.8220928E-13
  7.2750002E-03   -4.6065385E-14
  7.3099998E-03    1.3446185E-13
  7.3449998E-03    1.1782894E-13
  7.3799998E-03   -4.0492146E-14
  7.4149999E-03   -1.4205026E-13
  7.4499999E-03   -7.7784404E-14
  7.4850000E-03    1.0075176E-13
  7.5200000E-03    1.8577967E-13
  7.5550000E-03    7.3206254E-15
  7.5900001E-03   -2.4362337E-13
  7.6250001E-03   -1.6148652E-13
  7.6600001E-03    2.1660878E-13
  7.6950002E-03    3.1801954E-13
  7.7300002E-03   -8.8874607E-14
  7.7650002E-03   -4.1542185E-13
  7.7999998E-03   -1.2071323E-13
  7.8349998E-03    3.9407770E-13
  7.8699999E-03    3.5438143E-13
  7.9049999E-03   -2.2265689E-13
  7.9399999E-03   -5.3132233E-13
  7.9750000E-03   -8.7250472E-14
  8.0100000E-03    5.7217301E-13
  8.0450000E-03    4.8385173E-13
  8.0800001E-03   -4.1469210E-13
  8.1150001E-03   -8.7782293E-13
  8.1500001E-03    3.0971360E-14
  8.1850002E-03    1.1458047E-12
  8.2200002E-03    5.3801207E-13
  8.2550002E-03   -1.1690302E-12
  8.2900003E-03   -1.1702278E-12
  8.3250003E-03    8.9318489E-13
  8.3600003E-03    1.7009021E-12
  8.3950004E-03   -3.5931124E-13
  8.4300004E-03   -1.9839137E-12
  8.4650004E-03   -3.1359962E-13
  8.5000005E-03    1.9250975E-12
  8.5349996E-03    9.4817210E-13
  8.5699996E-03   -1.5126423E-12
  8.6049996E-03   -1.3342041E-12
  8.6399997E-03    8.5981423E-13
  8.6749997E-03    1.3082644E-12
  8.7099997E-03   -1.8935111E-13
  8.7449998E-03   -8.2774976E-13
  8.7799998E-03   -2.3349725E-13
  8.8149998E-03    2.1445834E-15
  8.8499999E-03    1.8276548E-13
  8.8849999E-03    9.2006828E-13
  8.9199999E-03    4.6077823E-13
  8.9550000E-03   -1.5489738E-12
  8.9900000E-03   -1.5497546E-12
  9.0250000E-03    1.5581015E-12
  9.0600001E-03    2.6883587E-12
  9.0950001E-03   -8.7942517E-13
  9.1300001E-03   -3.4268304E-12
  9.1650002E-03   -2.6439511E-13
  9.2000002E-03    3.4743209E-12
  9.2350002E-03    1.5525139E-12
  9.2700003E-03   -2.6128951E-12
  9.3050003E-03   -2.4604392E-12
  9.3400003E-03    8.6195840E-13
  9.3750004E-03    2.2875228E-12
  9.4100004E-03    1.2096393E-12
  9.4450004E-03   -6.2447541E-13
  9.4799995E-03   -2.5785507E-12
  9.5149996E-03   -2.1104910E-12
  9.5499996E-03    2.6105136E-12
  9.5849996E-03    5.1709513E-12
  9.6199997E-03   -1.1263699E-12
  9.6549997E-03   -7.8041375E-12
  9.6899997E-03   -1.7794582E-12
  9.7249998E-03    9.1947353E-12
  9.7599998E-03    5.5981582E-12
  9.7949998E-03   -8.5233019E-12
  9.8299999E-03   -8.9421257E-12
  9.8649999E-03    6.1211513E-12
  9.8999999E-03    1.0891114E-11
  9.9350000E-03   -2.6535454E-12
  9.9700000E-03   -1.0603428E-11
  1.0005000E-02   -5.7129133E-13
  1.0040000E-02    8.2372876E-12
  1.0075000E-02    2.7030904E-12
  1.0110000E-02   -3.8271638E-12
  1.0145000E-02   -1.8102799E-12
  1.0180000E-02   -3.5603877E-13
  1.0215000E-02   -1.6450489E-12
  1.0250000E-02    3.1915059E-12
  1.0285000E-02    7.1763745E-12
  1.0320000E-02   -3.1069199E-12
  1.0355000E-02   -1.2800257E-11
  1.0390000E-02    7.3311653E-13
  1.0425000E-02    1.8276112E-11
  1.0460000E-02    5.7285942E-12
  1.0495000E-02   -1.9836967E-11
  1.0530000E-02   -1.2699026E-11
  1.0565000E-02    1.8046726E-11
  1.0600000E-02    1.9212109E-11
  1.0635000E-02   -1.1620066E-11
  1.0670000E-02   -2.1046477E-11
  1.0705000E-02    4.1802026E-12
  1.0740000E-02    1.9532112E-11
  1.0775000E-02    5.6165073E-12
  1.0810000E-02   -9.1917376E-12
  1.0845000E-02   -8.6442823E-12
  1.0880000E-02   -2.6514106E-12
  1.0915000E-02    6.4646444E-12
  1.0950000E-02    1.5593051E-11
  1.0985000E-02    5.0338214E-12
  1.1020000E-02   -2.0284514E-11
  1.1055000E-02   -1.5568614E-11
  1.1090000E-02    2.6449874E-11
  1.1125000E-02    3.6561917E-11
  1.1160000E-02   -1.6878155E-11
  1.1195000E-02   -4.7935916E-11
  1.1230000E-02    6.5021283E-12
  1.1265000E-02    5.6482242E-11
  1.1300000E-02    1.2843724E-11
  1.1335000E-02   -4.6971059E-11
  1.1370000E-02   -1.8841408E-11
  1.1405000E-02    4.1721852E-11
  1.1440000E-02    3.1425380E-11
  1.1475000E-02   -1.9584620E-11
  1.1510000E-02   -2.5820080E-11
  1.1545000E-02    9.2618847E-12
  1.1580000E-02    2.5841494E-11
  1.1615000E-02    1.2305696E-11
  1.1650000E-02    3.9609973E-12
  1.1685000E-02    2.8970084E-12
  1.1720000E-02   -5.7906470E-12
  1.1755000E-02   -8.7449816E-14
  1.1790000E-02    2.9170968E-11
  1.1825000E-02    2.0879845E-11
  1.1860000E-02   -2.9151889E-11
  1.1895000E-02   -2.2007937E-11
  1.1930000E-02    4.8320736E-11
  1.1965000E-02    4.9846006E-11
  1.2000000E-02   -2.6864714E-11
  1.2035000E-02   -3.6258725E-11
  1.2070000E-02    3.4718270E-11
  1.2105000E-02    5.4627098E-11
  1.2140000E-02    3.4096502E-12
  1.2175000E-02   -1.8851904E-11
  1.2210000E-02    1.6380924E-11
  1.2245000E-02    3.3678300E-11
  1.2280000E-02    3.7068222E-12
  1.2315000E-02   -1.1302582E-12
  1.2350000E-02    3.5648162E-11
  1.2385000E-02    2.7363375E-11
  1.2420000E-02   -2.6431093E-11
  1.2455000E-02   -1.3463978E-11
  1.2490000E-02    6.1289883E-11
  1.2525000E-02    5.5125956E-11
  1.2560000E-02   -2.7098161E-11
  1.2595000E-02   -3.6090218E-11
  1.2630000E-02    4.4552095E-11
  1.2665000E-02    6.7668315E-11
  1.2700000E-02    4.6975492E-12
  1.2735000E-02   -1.6208731E-11
  1.2770000E-02    8.5033161E-12
  1.2805000E-02    6.2465328E-12
  1.2840000E-02    1.0050284E-11
  1.2875000E-02    5.0381210E-11
  1.2910000E-02    4.4578861E-11
  1.2945000E-02   -2.6364891E-11
  1.2980000E-02   -4.5038688E-11
  1.3015000E-02    3.9556962E-11
  1.3050000E-02    9.0284231E-11
  1.3085000E-02    6.2126511E-12
  1.3120000E-02   -1.0684949E-10
  1.3155000E-02   -4.7015166E-11
  1.3190000E-02    1.0430759E-10
  1.3225000E-02    8.6868013E-11
  1.3260000E-02   -8.1549233E-11
  1.3295000E-02   -1.0667042E-10
  1.3330000E-02    6.7747738E-11
  1.3365000E-02    1.5300808E-10
  1.3400000E-02    1.8675539E-11
  1.3435000E-02   -1.1236236E-10
  1.3470000E-02   -9.2338637E-11
  1.3505000E-02    1.6064872E-11
  1.3540000E-02    6.8990862E-11
  1.3575000E-02    1.0366582E-11
  1.3610000E-02   -8.5362835E-11
  1.3645000E-02   -8.5571113E-11
  1.3680000E-02    3.6331767E-11
  1.3715000E-02    1.1558222E-10
  1.3750000E-02   -1.8014061E-11
  1.3785000E-02   -2.1593832E-10
  1.3820000E-02   -1.4808035E-10
  1.3855000E-02    1.2090624E-10
  1.3890000E-02    1.3531501E-10
  1.3925000E-02   -1.2710921E-10
  1.3960000E-02   -1.8956241E-10
  1.3995000E-02    1.1243515E-11
  1.4030000E-02    1.1576560E-10
  1.4065000E-02    5.2980940E-12
  1.4100000E-02   -1.4989408E-10
  1.4135000E-02   -1.8808045E-10
  1.4170000E-02   -8.7249777E-11
  1.4205000E-02    1.5902120E-11
  1.4240000E-02   -3.0588129E-11
  1.4275000E-02   -1.3486072E-10
  1.4310000E-02   -1.1467435E-10
  1.4345000E-02   -4.0243316E-13
  1.4380000E-02    6.0309382E-11
  1.4415000E-02    2.2579067E-11
  1.4450000E-02   -5.3797768E-11
  1.4485000E-02   -9.2943750E-11
  1.4520000E-02   -9.2524509E-11
  1.4555000E-02   -1.0062731E-10
  1.4590000E-02   -8.8402029E-11
  1.4625000E-02   -4.3450066E-11
  1.4660000E-02   -6.7619042E-11
  1.4695000E-02   -1.0992438E-10
  1.4730000E-02   -1.0560127E-11
  1.4765000E-02    8.9788947E-11
  1.4800000E-02   -2.4349052E-11
  1.4835000E-02   -2.0865075E-10
  1.4870000E-02   -2.1443704E-10
  1.4905000E-02   -1.5208177E-11
  1.4940000E-02    1.8070725E-10
  1.4975000E-02    7.8700144E-11
  1.5010000E-02   -1.6482274E-10
  1.5045000E-02   -3.0662275E-11
  1.5080000E-02    2.7164559E-10
  1.5115000E-02    9.9737579E-11
  1.5150000E-02   -2.5699279E-10
  1.5185000E-02   -1.7304808E-10
  1.5220000E-02    8.9339106E-11
  1.5255000E-02    8.8013111E-11
  1.5290000E-02   -4.6690055E-11
  1.5325000E-02   -6.0991739E-11
  1.5360000E-02    8.4243480E-11
  1.5395000E-02    1.6961391E-10
  1.5430000E-02    4.5739423E-11
  1.5465000E-02    3.4129515E-11
  1.5500000E-02    1.8315689E-10
  1.5535000E-02    3.2565527E-11
  1.5570000E-02   -1.5921181E-10
  1.5605000E-02    1.0466377E-10
  1.5640000E-02    2.6452907E-10
  1.5675001E-02    1.4832096E-11
  1.5710000E-02    1.9459814E-11
  1.5745001E-02    2.4737556E-10
  1.5780000E-02    1.8188900E-10
  1.5814999E-02    4.2685792E-11
  1.5850000E-02    3.6497527E-11
  1.5884999E-02    9.4257754E-11
  1.5920000E-02    2.2947901E-10
  1.5954999E-02    9.7309036E-11
  1.5990000E-02   -1.5647134E-10
  1.6024999E-02    2.2501349E-10
  1.6060000E-02    5.5584759E-10
  1.6094999E-02    9.5379152E-13
  1.6130000E-02   -1.9096540E-10
  1.6164999E-02    3.5537623E-10
  1.6200000E-02    1.9083052E-10
  1.6235000E-02   -2.8851607E-10
  1.6270000E-02    6.2356051E-11
  1.6305000E-02    3.8227269E-10
  1.6340001E-02    1.9869219E-10
  1.6375000E-02    1.0349416E-10
  1.6410001E-02   -3.2082285E-11
  1.6445000E-02    4.1129385E-11
  1.6480001E-02    4.3541581E-10
  1.6515000E-02    6.4816152E-11
  1.6550001E-02   -4.5125262E-10
  1.6585000E-02    1.7607504E-10
  1.6620001E-02    4.3959936E-10
  1.6655000E-02   -2.2332636E-10
  1.6690001E-02    2.7457533E-12
  1.6725000E-02    4.2867640E-10
  1.6759999E-02   -1.5102886E-10
  1.6795000E-02   -2.0595829E-10
  1.6829999E-02    2.1652820E-10
  1.6865000E-02   -1.6968903E-10
  1.6899999E-02   -2.1966831E-10
  1.6935000E-02    2.1439854E-10
  1.6969999E-02   -8.4309899E-11
  1.7005000E-02   -7.1111651E-11
  1.7039999E-02    3.5333877E-10
  1.7075000E-02   -2.1592235E-10
  1.7109999E-02   -3.8974760E-10
  1.7145000E-02    3.7052278E-10
  1.7180000E-02   -9.8233720E-11
  1.7215000E-02   -7.5249523E-10
  1.7250000E-02    1.1267594E-10
  1.7285001E-02    3.3462336E-10
  1.7320000E-02   -4.0793549E-10
  1.7355001E-02   -1.5486253E-10
  1.7390000E-02    2.6226955E-11
  1.7425001E-02   -4.8765558E-10
  1.7460000E-02   -1.7768328E-10
  1.7495001E-02    7.9894868E-11
  1.7530000E-02   -4.8307108E-10
  1.7565001E-02   -2.7794525E-10
  1.7600000E-02    2.1524127E-10
  1.7635001E-02   -1.7401820E-10
  1.7670000E-02   -2.2851919E-10
  1.7704999E-02    1.1167458E-10
  1.7740000E-02   -1.7162570E-10
  1.7774999E-02   -2.5486857E-10
  1.7810000E-02   -7.1824456E-12
  1.7844999E-02   -3.6045322E-10
  1.7880000E-02   -5.8613481E-10
  1.7914999E-02   -2.3951310E-10
  1.7950000E-02   -2.2171665E-10
  1.7984999E-02   -2.7040717E-10
  1.8020000E-02    1.2837974E-10
  1.8054999E-02    2.1279624E-10
  1.8090000E-02   -1.3494773E-10
  1.8124999E-02   -1.4475138E-10
  1.8160000E-02    1.1352966E-10
  1.8195000E-02    2.8723671E-11
  1.8230001E-02   -2.8581645E-10
  1.8265000E-02   -3.1552272E-10
  1.8300001E-02   -2.5919841E-10
  1.8335000E-02   -3.7820649E-10
  1.8370001E-02   -1.7538157E-10
  1.8405000E-02    2.2715327E-10
  1.8440001E-02    1.1386916E-10
  1.8475000E-02   -5.5945942E-11
  1.8510001E-02   -1.3508383E-10
  1.8545000E-02   -4.6852366E-10
  1.8580001E-02   -9.3920406E-11
  1.8615000E-02    6.5313382E-10
  1.8650001E-02    8.0667778E-11
  1.8685000E-02   -4.4957577E-10
  1.8719999E-02    2.2943795E-10
  1.8755000E-02    3.2482168E-12
  1.8789999E-02   -5.5315263E-10
  1.8825000E-02    5.3201182E-10
  1.8859999E-02    5.3337418E-10
  1.8895000E-02   -9.6290642E-10
  1.8929999E-02   -4.0912798E-10
  1.8965000E-02    7.8444490E-10
  1.8999999E-02    2.7608926E-10
  1.9035000E-02    1.4805127E-10
  1.9069999E-02    2.9564967E-10
  1.9105000E-02   -5.1531351E-10
  1.9140000E-02   -1.1787728E-10
  1.9175000E-02    8.3186846E-10
  1.9210000E-02    1.2843719E-11
  1.9245001E-02   -5.0992072E-10
  1.9280000E-02    9.8225997E-11
  1.9315001E-02    1.0621760E-10
  1.9350000E-02    1.5450995E-10
  1.9385001E-02    5.2909460E-10
  1.9420000E-02    1.2021421E-10
  1.9455001E-02   -9.1721568E-11
  1.9490000E-02   -1.7939653E-11
  1.9525001E-02   -2.2641204E-10
  1.9560000E-02    3.3301104E-10
  1.9595001E-02    8.4451329E-10
  1.9630000E-02   -9.5755501E-11
  1.9664999E-02   -4.1220991E-10
  1.9700000E-02   -4.6494756E-11
  1.9734999E-02   -5.2861071E-10
  1.9770000E-02   -1.5050151E-10
  1.9804999E-02    1.1452553E-09
  1.9840000E-02    4.1259587E-10
  1.9874999E-02   -4.8268606E-10
  1.9910000E-02    3.5373152E-10
  1.9944999E-02    5.5904270E-10
  1.9980000E-02    1.9012709E-10
  2.0014999E-02    9.5952003E-11
  2.0050000E-02   -4.7978438E-10
  2.0085000E-02   -4.3145104E-10
  2.0120000E-02    1.8833911E-10
  2.0155000E-02   -2.4718089E-10
  2.0190001E-02   -3.9452275E-11
  2.0225000E-02    1.1213800E-09
  2.0260001E-02    6.4314237E-10
  2.0295000E-02    8.7644364E-11
  2.0330001E-02    7.1705003E-10
  2.0365000E-02   -2.3990257E-10
  2.0400001E-02   -8.3899304E-10
  2.0435000E-02    9.3459440E-10
  2.0470001E-02    5.3404892E-10
  2.0505000E-02   -1.3311735E-09
  2.0540001E-02   -2.8228161E-11
  2.0575000E-02    5.9125638E-10
  2.0609999E-02   -7.7393403E-10
  2.0645000E-02    3.4600117E-10
  2.0679999E-02    1.1481845E-09
  2.0715000E-02   -9.7058128E-10
  2.0749999E-02   -6.1006195E-10
  2.0785000E-02    1.4981222E-09
  2.0819999E-02    9.7918978E-11
  2.0855000E-02   -1.2884763E-09
  2.0889999E-02    3.6080369E-10
  2.0925000E-02    7.5262152E-10
  2.0959999E-02   -7.0891820E-10
  2.0995000E-02   -3.2240630E-10
  2.1029999E-02    8.6130658E-10
  2.1065000E-02   -5.1825094E-10
  2.1100000E-02   -1.5848703E-09
  2.1135001E-02    1.3813537E-09
  2.1170000E-02    3.2336478E-09
  2.1205001E-02   -1.4941913E-09
  2.1240000E-02   -2.5266171E-09
  2.1275001E-02    1.8798549E-09
  2.1310000E-02    1.0244071E-09
  2.1345001E-02   -2.4208553E-09
  2.1380000E-02    1.1984538E-09
  2.1415001E-02    2.3387965E-09
  2.1450000E-02   -2.8740086E-09
  2.1485001E-02   -7.7321738E-10
  2.1520000E-02    3.2690870E-09
  2.1555001E-02   -8.3604540E-10
  2.1590000E-02   -2.0039892E-09
  2.1624999E-02    2.3583699E-09
  2.1660000E-02    4.4138232E-10
  2.1694999E-02   -3.4997600E-09
  2.1730000E-02    5.7925428E-11
  2.1764999E-02    2.3942801E-09
  2.1800000E-02   -8.3331853E-10
  2.1834999E-02   -1.2484841E-09
  2.1870000E-02    1.6729657E-09
  2.1904999E-02    1.3095819E-09
  2.1940000E-02   -9.1370594E-10
  2.1974999E-02   -5.2606136E-10
  2.2010000E-02    1.5823326E-10
  2.2045000E-02   -1.0524283E-09
  2.2080000E-02   -6.9989298E-10
  2.2115000E-02    1.2667620E-09
  2.2150001E-02    1.3937028E-09
  2.2185000E-02    4.1357684E-10
  2.2220001E-02   -1.9327731E-10
  2.2255000E-02   -6.5680528E-10
  2.2290001E-02   -7.9124113E-10
  2.2325000E-02   -4.0913162E-10
  2.2360001E-02   -5.1113480E-10
  2.2395000E-02    1.0345633E-09
  2.2430001E-02    2.8938050E-09
  2.2465000E-02   -6.1792661E-11
  2.2500001E-02   -3.4550995E-09
  2.2535000E-02   -6.1236860E-10
  2.2569999E-02    1.4327323E-09
  2.2605000E-02   -1.8611403E-10
  2.2639999E-02    8.1866333E-11
  2.2675000E-02    1.0098539E-09
  2.2709999E-02   -1.0237967E-09
  2.2745000E-02   -1.2085669E-09
  2.2779999E-02    2.2134918E-09
  2.2815000E-02    1.1909950E-09
  2.2849999E-02   -2.9434095E-09
  2.2885000E-02   -2.5683564E-10
  2.2919999E-02    3.2728886E-09
  2.2955000E-02    2.6989220E-11
  2.2990000E-02   -3.0170821E-09
  2.3025000E-02   -1.0858595E-09
  2.3060000E-02   -1.2987649E-09
  2.3095001E-02   -1.4524838E-09
  2.3130000E-02    3.3259471E-09
  2.3165001E-02    6.1536576E-09
  2.3200000E-02    6.5270928E-10
  2.3235001E-02   -3.7429548E-09
  2.3270000E-02   -2.7558928E-09
  2.3305001E-02   -1.7763828E-09
  2.3340000E-02    1.4135501E-09
  2.3375001E-02    3.4182122E-09
  2.3410000E-02    2.0457562E-09
  2.3445001E-02   -1.8950297E-09
  2.3480000E-02   -4.2580539E-09
  2.3514999E-02   -3.1594560E-09
  2.3550000E-02    1.6490798E-09
  2.3584999E-02    3.6106205E-09
  2.3620000E-02    2.0693243E-09
  2.3654999E-02   -3.5234587E-10
  2.3690000E-02   -1.3297849E-09
  2.3724999E-02   -8.8907470E-10
  2.3760000E-02    1.0660005E-09
  2.3794999E-02    8.8735741E-10
  2.3830000E-02   -6.9108858E-11
  2.3864999E-02    4.3828968E-10
  2.3900000E-02   -1.0728208E-09
  2.3934999E-02   -1.4316329E-09
  2.3970000E-02    1.8704873E-09
  2.4005000E-02    1.6973168E-09
  2.4040001E-02   -8.4463386E-10
  2.4075000E-02   -3.5068382E-10
  2.4110001E-02   -8.4674212E-11
  2.4145000E-02    7.9929763E-10
  2.4180001E-02    3.2810028E-09
  2.4215000E-02    3.1222833E-09
  2.4250001E-02    4.1553649E-11
  2.4285000E-02    1.6280710E-10
  2.4320001E-02    1.0294660E-09
  2.4355000E-02   -1.3588307E-09
  2.4390001E-02   -2.7572413E-09
  2.4425000E-02   -1.6134095E-09
  2.4460001E-02    8.4859109E-10
  2.4495000E-02    2.9215270E-09
  2.4529999E-02    1.3381632E-09
  2.4565000E-02   -1.1188190E-09
  2.4599999E-02    1.9252979E-09
  2.4635000E-02    2.1767572E-09
  2.4669999E-02   -3.8733807E-09
  2.4705000E-02   -1.6068711E-09
  2.4739999E-02    5.6344995E-09
  2.4775000E-02    1.2124188E-09
  2.4809999E-02   -4.1294976E-09
  2.4845000E-02    4.7960258E-10
  2.4879999E-02   -1.2917853E-10
  2.4915000E-02   -4.1827830E-09
  2.4950000E-02    1.9677620E-09
  2.4985000E-02    4.5195541E-09
  2.5020000E-02   -2.5086422E-09
  2.5055001E-02   -1.4266555E-09
  2.5090000E-02    1.6620907E-09
  2.5125001E-02   -3.3981298E-09
  2.5160000E-02   -1.2024471E-09
  2.5195001E-02    4.9290918E-09
  2.5230000E-02   -7.5855788E-10
  2.5265001E-02   -3.1962351E-09
  2.5300000E-02    3.9798378E-09
  2.5335001E-02    2.1541298E-09
  2.5370000E-02   -3.9181174E-09
  2.5405001E-02    5.2836138E-12
  2.5440000E-02    2.3249354E-09
  2.5474999E-02   -3.7116066E-09
  2.5510000E-02   -4.0970431E-09
  2.5544999E-02    4.4917652E-09
  2.5580000E-02    5.3308971E-09
  2.5614999E-02   -4.9026374E-09
  2.5650000E-02   -6.8974133E-09
  2.5684999E-02    2.8114244E-09
  2.5720000E-02    2.0712567E-09
  2.5754999E-02   -6.0438134E-09
  2.5790000E-02    8.6817292E-10
  2.5824999E-02    7.8078699E-09
  2.5860000E-02   -3.1788856E-09
  2.5895000E-02   -8.3827363E-09
  2.5930000E-02    2.2075670E-09
  2.5965000E-02    3.7988155E-09
  2.6000001E-02   -3.3386520E-09
  2.6035000E-02   -3.5362938E-10
  2.6070001E-02    4.8077964E-09
  2.6105000E-02   -4.0203002E-10
  2.6140001E-02   -4.3884532E-09
  2.6175000E-02    5.2867521E-10
  2.6210001E-02    2.7535607E-09
  2.6245000E-02   -1.5853729E-09
  2.6280001E-02   -2.7180487E-09
  2.6315000E-02   -2.0456013E-10
  2.6350001E-02   -1.1985273E-09
  2.6385000E-02   -2.3069380E-09
  2.6419999E-02    1.0916896E-09
  2.6455000E-02    1.6706969E-09
  2.6489999E-02   -2.3654596E-09
  2.6525000E-02   -2.2135771E-09
  2.6559999E-02    7.1368422E-10
  2.6595000E-02    1.0529405E-09
  2.6629999E-02    2.3326581E-09
  2.6665000E-02    2.4494067E-09
  2.6699999E-02   -9.3641184E-10
  2.6735000E-02   -1.8496585E-09
  2.6769999E-02   -9.8212405E-10
  2.6805000E-02   -1.1217972E-09
  2.6839999E-02   -6.5725626E-11
  2.6875000E-02    6.0518895E-10
  2.6910000E-02    1.8844931E-10
  2.6945001E-02    1.7709874E-09
  2.6980000E-02    2.4776131E-11