 -4.8000002E-03    1.0000000E-24
 -4.7650002E-03    1.0000002E-24
 -4.7300002E-03    1.0000001E-24
 -4.6950001E-03    1.0000000E-24
 -4.6600001E-03    1.0000002E-24
 -4.6250001E-03    1.0000002E-24
 -4.5900000E-03    1.0000002E-24
 -4.5550000E-03    1.0000000E-24
 -4.5200000E-03    1.0000000E-24
 -4.4849999E-03    1.0000002E-24
 -4.4499999E-03    1.0000002E-24
 -4.4149999E-03    9.9999972E-25
 -4.3799998E-03    1.0000001E-24
 -4.3449998E-03    1.0000003E-24
 -4.3100002E-03    1.0000001E-24
 -4.2750002E-03    1.0000002E-24
 -4.2400002E-03    1.0000002E-24
 -4.2050001E-03    9.9999982E-25
 -4.1700001E-03    1.0000002E-24
 -4.1350001E-03    1.0000001E-24
 -4.1000000E-03    9.9999953E-25
 -4.0650000E-03    1.0000002E-24
 -4.0300000E-03    1.0000005E-24
 -3.9949999E-03    9.9999943E-25
 -3.9599999E-03    9.9999933E-25
 -3.9249999E-03    1.0000004E-24
 -3.8900001E-03    1.0000001E-24
 -3.8550000E-03    9.9999982E-25
 -3.8200000E-03    1.0000005E-24
 -3.7849999E-03    1.0000005E-24
 -3.7499999E-03    9.9999982E-25
 -3.7150001E-03    1.0000003E-24
 -3.6800001E-03    1.0000006E-24
 -3.6450000E-03    9.9999963E-25
 -3.6100000E-03    9.9999963E-25
 -3.5750000E-03    1.0000005E-24
 -3.5399999E-03    1.0000000E-24
 -3.5049999E-03    9.9999953E-25
 -3.4700001E-03    1.0000004E-24
 -3.4350001E-03    1.0000005E-24
 -3.4000000E-03    9.9999953E-25
 -3.3650000E-03    9.9999963E-25
 -3.3300000E-03    1.0000006E-24
 -3.2949999E-03    1.0000002E-24
 -3.2599999E-03    9.9999943E-25
 -3.2250001E-03    9.9999972E-25
 -3.1900001E-03    1.0000004E-24
 -3.1550000E-03    1.0000001E-24
 -3.1200000E-03    1.0000001E-24
 -3.0850000E-03    1.0000008E-24
 -3.0499999E-03    1.0000005E-24
 -3.0149999E-03    9.9999963E-25
 -2.9800001E-03    9.9999982E-25
 -2.9450001E-03    1.0000004E-24
 -2.9100000E-03    9.9999982E-25
 -2.8750000E-03    9.9999963E-25
 -2.8400000E-03    1.0000002E-24
 -2.8049999E-03    1.0000003E-24
 -2.7699999E-03    9.9999982E-25
 -2.7350001E-03    1.0000001E-24
 -2.7000001E-03    1.0000009E-24
 -2.6650000E-03    1.0000000E-24
 -2.6300000E-03    9.9999893E-25
 -2.5950000E-03    9.9999943E-25
 -2.5599999E-03    1.0000005E-24
 -2.5249999E-03    1.0000007E-24
 -2.4900001E-03    1.0000008E-24
 -2.4550001E-03    1.0000010E-24
 -2.4200000E-03    1.0000002E-24
 -2.3850000E-03    9.9999893E-25
 -2.3500000E-03    9.9999933E-25
 -2.3149999E-03    9.9999972E-25
 -2.2799999E-03    9.9999992E-25
 -2.2450001E-03    1.0000004E-24
 -2.2100001E-03    1.0000013E-24
 -2.1750000E-03    9.9999992E-25
 -2.1400000E-03    9.9999854E-25
 -2.1050000E-03    1.0000003E-24
 -2.0699999E-03    1.0000015E-24
 -2.0349999E-03    9.9999943E-25
 -2.0000001E-03    9.9999923E-25
 -1.9650001E-03    1.0000011E-24
 -1.9300000E-03    1.0000007E-24
 -1.8950000E-03    9.9999923E-25
 -1.8600000E-03    1.0000000E-24
 -1.8250000E-03    1.0000008E-24
 -1.7900000E-03    9.9999953E-25
 -1.7550000E-03    9.9999923E-25
 -1.7199999E-03    1.0000002E-24
 -1.6850000E-03    1.0000008E-24
 -1.6500000E-03    1.0000009E-24
 -1.6150000E-03    9.9999963E-25
 -1.5800000E-03    9.9999834E-25
 -1.5450000E-03    9.9999982E-25
 -1.5100000E-03    9.9999972E-25
 -1.4750001E-03    9.9999824E-25
 -1.4400000E-03    1.0000047E-24
 -1.4050000E-03    1.0000035E-24
 -1.3700000E-03    9.9998552E-25
 -1.3350000E-03    1.0000074E-24
 -1.3000000E-03    1.0000368E-24
 -1.2650000E-03    9.9994095E-25
 -1.2300001E-03    9.9994450E-25
 -1.1950000E-03    1.0002178E-24
 -1.1600000E-03    9.9996945E-25
 -1.1250000E-03    9.9942701E-25
 -1.0900000E-03    1.0005518E-24
 -1.0550000E-03    1.0010843E-24
 -1.0200000E-03    9.9772051E-25
 -9.8500005E-04    9.9895438E-25
 -9.5000002E-04    1.0064798E-24
 -9.1499998E-04    9.9785905E-25
 -8.8000001E-04    9.8594370E-25
 -8.4499997E-04    1.0149262E-24
 -8.1000000E-04    1.0221643E-24
 -7.7500002E-04    9.5092577E-25
 -7.3999999E-04    9.8395735E-25
 -7.0500001E-04    1.1183037E-24
 -6.6999998E-04    9.5502528E-25
 -6.3500000E-04    7.7919736E-25
 -6.0000003E-04    1.2420681E-24
 -5.6499999E-04    1.2938042E-24
 -5.3000002E-04    3.0802906E-25
 -4.9499999E-04    8.7047567E-25
 -4.6000001E-04    2.4778091E-24
 -4.2500001E-04    2.6517140E-25
 -3.9000000E-04   -1.4459758E-24
 -3.5500000E-04    4.0826778E-24
 -3.1999999E-04    3.7985416E-24
 -2.8499999E-04   -6.8744282E-24
 -2.5000001E-04    5.2434894E-25
 -2.1499999E-04    1.6625767E-23
 -1.8000000E-04   -7.5050412E-24
 -1.4500000E-04   -2.3998861E-23
 -1.1000000E-04    3.1298552E-23
 -7.5000004E-05    3.1431039E-23
 -3.9999999E-05   -7.1291947E-23
 -4.9999999E-06   -1.8030651E-23
  2.9999999E-05    1.4099648E-22
  6.5000000E-05   -3.1351387E-23
  9.9999997E-05   -2.2995174E-22
  1.3499999E-04    1.5917740E-22
  1.7000000E-04    3.2647545E-22
  2.0500000E-04   -4.0012126E-22
  2.3999999E-04   -3.7416723E-22
  2.7500000E-04    8.0343153E-22
  3.1000000E-04    2.9223020E-22
  3.4500001E-04   -1.3828237E-21
  3.8000001E-04    6.5513485E-23
  4.1499999E-04    2.1205940E-21
  4.4999999E-04   -8.8169375E-22
  4.8500000E-04   -2.8969119E-21
  5.2000000E-04    2.4010521E-21
  5.5499998E-04    3.4710219E-21
  5.9000001E-04   -4.8780852E-21
  6.2499999E-04   -3.3850810E-21
  6.6000002E-04    8.5677171E-21
  6.9500000E-04    1.9193185E-21
  7.3000003E-04   -1.3621198E-20
  7.6500000E-04    2.0234066E-21
  7.9999998E-04    2.0003954E-20
  8.3500001E-04   -9.9607603E-21
  8.6999999E-04   -2.7297858E-20
  9.0500002E-04    2.3904256E-20
  9.4000000E-04    3.4509869E-20
  9.7499997E-04   -4.6298362E-20
  1.0100000E-03   -3.9753557E-20
  1.0450000E-03    7.9903715E-20
  1.0800000E-03    3.9917332E-20
  1.1150000E-03   -1.2742551E-19
  1.1500000E-03   -3.0158327E-20
  1.1849999E-03    1.9091065E-19
  1.2200000E-03    3.2946040E-21
  1.2550000E-03   -2.7064502E-19
  1.2900000E-03    5.1105441E-20
  1.3250000E-03    3.6353040E-19
  1.3600000E-03   -1.4789525E-19
  1.3950000E-03   -4.6073262E-19
  1.4299999E-03    3.0804110E-19
  1.4650000E-03    5.4483249E-19
  1.5000000E-03   -5.6092017E-19
  1.5350000E-03   -5.8676155E-19
  1.5700000E-03    9.4768418E-19
  1.6050000E-03    5.4343822E-19
  1.6400000E-03   -1.5259067E-18
  1.6749999E-03   -3.5718088E-19
  1.7100000E-03    2.3756501E-18
  1.7450000E-03   -4.1336832E-20
  1.7800000E-03   -3.6059313E-18
  1.8150000E-03    7.2456658E-19
  1.8500000E-03    5.3591059E-18
  1.8850000E-03   -1.7512603E-18
  1.9200000E-03   -7.8080018E-18
  1.9550000E-03    3.1389081E-18
  1.9900000E-03    1.1137969E-17
  2.0250001E-03   -4.8244226E-18
  2.0600001E-03   -1.5502950E-17
  2.0949999E-03    6.6164419E-18
  2.1299999E-03    2.0942307E-17
  2.1650000E-03   -8.1502006E-18
  2.2000000E-03   -2.7244042E-17
  2.2350000E-03    8.8674547E-18
  2.2700001E-03    3.3742080E-17
  2.3050001E-03   -8.0578236E-18
  2.3399999E-03   -3.9044536E-17
  2.3749999E-03    5.0113468E-18
  2.4100000E-03    4.0710170E-17
  2.4450000E-03    6.5655631E-19
  2.4800000E-03   -3.4924707E-17
  2.5150001E-03   -8.4462411E-18
  2.5500001E-03    1.6278230E-17
  2.5849999E-03    1.6132851E-17
  2.6199999E-03    2.2200853E-17
  2.6550000E-03   -1.8638141E-17
  2.6900000E-03   -8.8540738E-17
  2.7250000E-03    6.6981885E-18
  2.7600001E-03    1.9060400E-16
  2.7950001E-03    3.4445617E-17
  2.8299999E-03   -3.3391039E-16
  2.8649999E-03   -1.2592210E-16
  2.9000000E-03    5.1834779E-16
  2.9350000E-03    2.9504895E-16
  2.9700000E-03   -7.3380518E-16
  3.0050001E-03   -5.7329112E-16
  3.0400001E-03    9.5509212E-16
  3.0749999E-03    9.9147589E-16
  3.1099999E-03   -1.1370320E-15
  3.1450000E-03   -1.5714550E-15
  3.1800000E-03    1.2112623E-15
  3.2150000E-03    2.3138020E-15
  3.2500001E-03   -1.0869934E-15
  3.2850001E-03   -3.1818858E-15
  3.3199999E-03    6.5861042E-16
  3.3549999E-03    4.0841172E-15
  3.3900000E-03    1.7711602E-16
  3.4250000E-03   -4.8578466E-15
  3.4600000E-03   -1.4922088E-15
  3.4950001E-03    5.2602648E-15
  3.5300001E-03    3.2867530E-15
  3.5649999E-03   -4.9732159E-15
  3.5999999E-03   -5.4382624E-15
  3.6350000E-03    3.6307335E-15
  3.6700000E-03    7.6477944E-15
  3.7050000E-03   -8.7804092E-16
  3.7400001E-03   -9.3968344E-15
  3.7750001E-03   -3.5349131E-15
  3.8099999E-03    9.9340769E-15
  3.8449999E-03    9.6318234E-15
  3.8800000E-03   -8.3098032E-15
  3.9149998E-03   -1.7073857E-14
  3.9499998E-03    3.4733378E-15
  3.9849998E-03    2.5025843E-14
  4.0199999E-03    5.5450110E-15
  4.0549999E-03   -3.2063358E-14
  4.0899999E-03   -1.9356968E-14
  4.1250000E-03    3.6187548E-14
  4.1600000E-03    3.7880215E-14
  4.1950000E-03   -3.5005266E-14
  4.2300001E-03   -6.0028385E-14
  4.2650001E-03    2.6070490E-14
  4.3000001E-03    8.3486068E-14
  4.3350002E-03   -7.3720954E-15
  4.3700002E-03   -1.0460565E-13
  4.4049998E-03   -2.1994947E-14
  4.4399998E-03    1.1856656E-13
  4.4749998E-03    6.1020680E-14
  4.5099999E-03   -1.2002641E-13
  4.5449999E-03   -1.0616001E-13
  4.5799999E-03    1.0422276E-13
  4.6150000E-03    1.5123822E-13
  4.6500000E-03   -6.8148652E-14
  4.6850001E-03   -1.8777288E-13
  4.7200001E-03    1.1702036E-14
  4.7550001E-03    2.0557193E-13
  4.7900002E-03    6.0870972E-14
  4.8250002E-03   -1.9426179E-13
  4.8600002E-03   -1.3975842E-13
  4.8949998E-03    1.4623123E-13
  4.9299998E-03    2.1018120E-13
  4.9649999E-03   -5.9509065E-14
  4.9999999E-03   -2.5485086E-13
  5.0349999E-03   -6.1126112E-14
  5.0700000E-03    2.5608937E-13
  5.1050000E-03    2.0329895E-13
  5.1400000E-03   -1.9787858E-13
  5.1750001E-03   -3.4495228E-13
  5.2100001E-03    7.1528083E-14
  5.2450001E-03    4.5563867E-13
  5.2800002E-03    1.1693008E-13
  5.3150002E-03   -5.0531806E-13
  5.3500002E-03   -3.4669945E-13
  5.3849998E-03    4.7250761E-13
  5.4199998E-03    5.8857308E-13
  5.4549999E-03   -3.4381284E-13
  5.4899999E-03   -8.0421097E-13
  5.5249999E-03    1.1760548E-13
  5.5600000E-03    9.4314205E-13
  5.5950000E-03    1.7856727E-13
  5.6300000E-03   -9.6200456E-13
  5.6650001E-03   -4.8535953E-13
  5.7000001E-03    8.5358516E-13
  5.7350001E-03    7.4300944E-13
  5.7700002E-03   -6.3875863E-13
  5.8050002E-03   -9.0728651E-13
  5.8400002E-03    3.4166374E-13
  5.8749998E-03    9.2140412E-13
  5.9099998E-03   -2.1673771E-14
  5.9449999E-03   -7.3177038E-13
  5.9799999E-03   -1.8925803E-13
  6.0149999E-03    3.8132656E-13
  6.0500000E-03    1.7319766E-13
  6.0850000E-03   -1.0941879E-14
  6.1200000E-03    6.7437023E-14
  6.1550001E-03   -2.8444489E-13
  6.1900001E-03   -5.0384447E-13
  6.2250001E-03    4.5641751E-13
  6.2600002E-03    1.1826089E-12
  6.2950002E-03   -3.0948781E-13
  6.3299998E-03   -1.9996611E-12
  6.3649998E-03   -3.8768056E-13
  6.3999998E-03    2.5392201E-12
  6.4349999E-03    1.4760375E-12
  6.4699999E-03   -2.5177009E-12
  6.5049999E-03   -2.5389762E-12
  6.5400000E-03    2.1069717E-12
  6.5750000E-03    3.5353482E-12
  6.6100000E-03   -1.3118172E-12
  6.6450001E-03   -4.5132700E-12
  6.6800001E-03   -3.1747001E-13
  6.7150001E-03    4.7070915E-12
  6.7500002E-03    2.4928037E-12
  6.7850002E-03   -3.3030026E-12
  6.8199998E-03   -3.8133142E-12
  6.8549998E-03    1.0389453E-12
  6.8899998E-03    3.7815810E-12
  6.9249999E-03    9.8213766E-13
  6.9599999E-03   -3.3133502E-12
  6.9949999E-03   -3.4691596E-12
  7.0300000E-03    1.8005572E-12
  7.0650000E-03    6.7043580E-12
  7.1000000E-03    2.8567966E-12
  7.1350001E-03   -7.6225502E-12
  7.1700001E-03   -9.3011779E-12
  7.2050001E-03    4.0978445E-12
  7.2400002E-03    1.3284171E-11
  7.2750002E-03    6.7456208E-13
  7.3099998E-03   -1.5173378E-11
  7.3449998E-03   -4.7745987E-12
  7.3799998E-03    1.8257623E-11
  7.4149999E-03    1.2573291E-11
  7.4499999E-03   -1.8482533E-11
  7.4850000E-03   -2.3856240E-11
  7.5200000E-03    9.6681430E-12
  7.5550000E-03    2.8679533E-11
  7.5900001E-03    1.5028519E-12
  7.6250001E-03   -2.5172035E-11
  7.6600001E-03   -5.6560590E-12
  7.6950002E-03    2.4660399E-11
  7.7300002E-03    1.0830569E-11
  7.7650002E-03   -2.5624676E-11
  7.7999998E-03   -2.4258540E-11
  7.8349998E-03    1.2243114E-11
  7.8699999E-03    2.7942650E-11
  7.9049999E-03    7.3451774E-12
  7.9399999E-03   -1.1221536E-11
  7.9750000E-03   -7.1528426E-12
  8.0100000E-03    2.6844168E-13
  8.0450000E-03   -2.3279041E-12
  8.0800001E-03   -6.5554051E-12
  8.1150001E-03   -7.4645680E-12
  8.1500001E-03   -3.7146111E-12
  8.1850002E-03    1.2827218E-11
  8.2200002E-03    3.2124050E-11
  8.2550002E-03    1.9745500E-11
  8.2900003E-03   -2.4956936E-11
  8.3250003E-03   -4.5620230E-11
  8.3600003E-03   -1.2332523E-11
  8.3950004E-03    2.1737442E-11
  8.4300004E-03    7.9719399E-12
  8.4650004E-03   -1.0879742E-11
  8.5000005E-03    1.8872593E-11
  8.5349996E-03    5.2071958E-11
  8.5699996E-03    1.6402057E-11
  8.6049996E-03   -5.2426109E-11
  8.6399997E-03   -6.1658262E-11
  8.6749997E-03   -1.3954856E-11
  8.7099997E-03    1.2875132E-11
  8.7449998E-03    1.1699603E-11
  8.7799998E-03    3.7329421E-11
  8.8149998E-03    6.8756244E-11
  8.8499999E-03    2.9390840E-11
  8.8849999E-03   -5.4784389E-11
  8.9199999E-03   -7.4572265E-11
  8.9550000E-03   -2.6084227E-11
  8.9900000E-03   -1.0956285E-11
  9.0250000E-03   -3.0814316E-11
  9.0600001E-03    2.2397924E-11
  9.0950001E-03    1.3031769E-10
  9.1300001E-03    1.2282693E-10
  9.1650002E-03   -3.2587138E-11
  9.2000002E-03   -1.4111323E-10
  9.2350002E-03   -8.8080675E-11
  9.2700003E-03   -8.8286635E-12
  9.3050003E-03   -1.9928201E-11
  9.3400003E-03   -1.7289543E-11
  9.3750004E-03    8.9984464E-11
  9.4100004E-03    1.7165588E-10
  9.4450004E-03    9.4205803E-11
  9.4799995E-03   -5.5323256E-11
  9.5149996E-03   -1.3905184E-10
  9.5499996E-03   -1.5690592E-10
  9.5849996E-03   -1.1919511E-10
  9.6199997E-03    2.3429323E-11
  9.6549997E-03    1.8372874E-10
  9.6899997E-03    1.6336509E-10
  9.7249998E-03    8.7173801E-12
  9.7599998E-03   -1.0892865E-11
  9.7949998E-03    8.8836570E-11
  9.8299999E-03   -2.2783430E-11
  9.8649999E-03   -3.2910563E-10
  9.8999999E-03   -3.3208358E-10
  9.9350000E-03    1.1380565E-10
  9.9700000E-03    4.2936760E-10
  1.0005000E-02    2.0446320E-10
  1.0040000E-02   -1.2443645E-10
  1.0075000E-02   -3.9970950E-11
  1.0110000E-02    1.6771912E-10
  1.0145000E-02   -3.7753405E-11
  1.0180000E-02   -4.3264739E-10
  1.0215000E-02   -3.6631639E-10
  1.0250000E-02    1.5460704E-10
  1.0285000E-02    4.7187282E-10
  1.0320000E-02    2.7875136E-10
  1.0355000E-02   -3.7276862E-11
  1.0390000E-02   -8.4214628E-11
  1.0425000E-02    2.4929165E-11
  1.0460000E-02   -2.3146025E-11
  1.0495000E-02   -2.5351143E-10
  1.0530000E-02   -3.6505726E-10
  1.0565000E-02   -9.5745037E-11
  1.0600000E-02    3.9811951E-10
  1.0635000E-02    6.0099953E-10
  1.0670000E-02    2.4863769E-10
  1.0705000E-02   -2.3196990E-10
  1.0740000E-02   -2.5089578E-10
  1.0775000E-02    6.1607761E-11
  1.0810000E-02    5.6944661E-11
  1.0845000E-02   -3.1103997E-10
  1.0880000E-02   -3.0592318E-10
  1.0915000E-02    3.5658584E-10
  1.0950000E-02    8.6644869E-10
  1.0985000E-02    4.9464510E-10
  1.1020000E-02   -2.2424648E-10
  1.1055000E-02   -2.8089012E-10
  1.1090000E-02    2.4763194E-10
  1.1125000E-02    3.8396911E-10
  1.1160000E-02   -1.0417126E-10
  1.1195000E-02   -2.9825548E-10
  1.1230000E-02    3.4812275E-10
  1.1265000E-02    1.0667707E-09
  1.1300000E-02    9.5789021E-10
  1.1335000E-02    3.3259212E-10
  1.1370000E-02    1.1465353E-10
  1.1405000E-02    4.4504123E-10
  1.1440000E-02    6.9125616E-10
  1.1475000E-02    5.8039346E-10
  1.1510000E-02    5.5081861E-10
  1.1545000E-02    9.4427555E-10
  1.1580000E-02    1.4657876E-09
  1.1615000E-02    1.6574556E-09
  1.1650000E-02    1.4963832E-09
  1.1685000E-02    1.3372879E-09
  1.1720000E-02    1.5118763E-09
  1.1755000E-02    2.0022919E-09
  1.1790000E-02    2.4103706E-09
  1.1825000E-02    2.4742535E-09
  1.1860000E-02    2.5548592E-09
  1.1895000E-02    3.1179095E-09
  1.1930000E-02    3.8922785E-09
  1.1965000E-02    4.2374064E-09
  1.2000000E-02    4.2380259E-09
  1.2035000E-02    4.6517825E-09
  1.2070000E-02    5.6816285E-09
  1.2105000E-02    6.6042021E-09
  1.2140000E-02    6.9773649E-09
  1.2175000E-02    7.3679813E-09
  1.2210000E-02    8.2991658E-09
  1.2245000E-02    9.4019486E-09
  1.2280000E-02    1.0271642E-08
  1.2315000E-02    1.1242780E-08
  1.2350000E-02    1.2748966E-08
  1.2385000E-02    1.4603403E-08
  1.2420000E-02    1.6266384E-08
  1.2455000E-02    1.7536250E-08
  1.2490000E-02    1.8757838E-08
  1.2525000E-02    2.0328798E-08
  1.2560000E-02    2.2356929E-08
  1.2595000E-02    2.4858297E-08
  1.2630000E-02    2.7692140E-08
  1.2665000E-02    3.0544651E-08
  1.2700000E-02    3.3490601E-08
  1.2735000E-02    3.6801161E-08
  1.2770000E-02    4.0231729E-08
  1.2805000E-02    4.3570498E-08
  1.2840000E-02    4.7120491E-08
  1.2875000E-02    5.1060990E-08
  1.2910000E-02    5.5530794E-08
  1.2945000E-02    6.0825037E-08
  1.2980000E-02    6.6684713E-08
  1.3015000E-02    7.2731460E-08
  1.3050000E-02    7.9109348E-08
  1.3085000E-02    8.5616314E-08
  1.3120000E-02    9.2106845E-08
  1.3155000E-02    9.9340511E-08
  1.3190000E-02    1.0747640E-07
  1.3225000E-02    1.1601220E-07
  1.3260000E-02    1.2535894E-07
  1.3295000E-02    1.3554993E-07
  1.3330000E-02    1.4587563E-07
  1.3365000E-02    1.5696791E-07
  1.3400000E-02    1.6930876E-07
  1.3435000E-02    1.8195195E-07
  1.3470000E-02    1.9510296E-07
  1.3505000E-02    2.0920282E-07
  1.3540000E-02    2.2340639E-07
  1.3575000E-02    2.3877593E-07
  1.3610000E-02    2.5667538E-07
  1.3645000E-02    2.7496148E-07
  1.3680000E-02    2.9274122E-07
  1.3715000E-02    3.1219304E-07
  1.3750000E-02    3.3320535E-07
  1.3785000E-02    3.5494605E-07
  1.3820000E-02    3.7819129E-07
  1.3855000E-02    4.0192049E-07
  1.3890000E-02    4.2615838E-07
  1.3925000E-02    4.5334431E-07
  1.3960000E-02    4.8169483E-07
  1.3995000E-02    5.0917544E-07
  1.4030000E-02    5.3923935E-07
  1.4065000E-02    5.7188021E-07
  1.4100000E-02    6.0388015E-07
  1.4135000E-02    6.3796608E-07
  1.4170000E-02    6.7528487E-07
  1.4205000E-02    7.1193284E-07
  1.4240000E-02    7.4948724E-07
  1.4275000E-02    7.9025858E-07
  1.4310000E-02    8.3140918E-07
  1.4345000E-02    8.7419454E-07
  1.4380000E-02    9.1996520E-07
  1.4415000E-02    9.6477288E-07
  1.4450000E-02    1.0111344E-06
  1.4485000E-02    1.0627099E-06
  1.4520000E-02    1.1137250E-06
  1.4555000E-02    1.1643568E-06
  1.4590000E-02    1.2203324E-06
  1.4625000E-02    1.2763605E-06
  1.4660000E-02    1.3300734E-06
  1.4695000E-02    1.3887757E-06
  1.4730000E-02    1.4502724E-06
  1.4765000E-02    1.5106668E-06
  1.4800000E-02    1.5747133E-06
  1.4835000E-02    1.6397704E-06
  1.4870000E-02    1.7030650E-06
  1.4905000E-02    1.7718863E-06
  1.4940000E-02    1.8428017E-06
  1.4975000E-02    1.9088986E-06
  1.5010000E-02    1.9786191E-06
  1.5045000E-02    2.0524033E-06
  1.5080000E-02    2.1218289E-06
  1.5115000E-02    2.1945043E-06
  1.5150000E-02    2.2731911E-06
  1.5185000E-02    2.3472492E-06
  1.5220000E-02    2.4214080E-06
  1.5255000E-02    2.5007496E-06
  1.5290000E-02    2.5757349E-06
  1.5325000E-02    2.6502910E-06
  1.5360000E-02    2.7306046E-06
  1.5395000E-02    2.8063760E-06
  1.5430000E-02    2.8806649E-06
  1.5465000E-02    2.9616760E-06
  1.5500000E-02    3.0376796E-06
  1.5535000E-02    3.1099632E-06
  1.5570000E-02    3.1908903E-06
  1.5605000E-02    3.2681667E-06
  1.5640000E-02    3.3369847E-06
  1.5675001E-02    3.4120937E-06
  1.5710000E-02    3.4861050E-06
  1.5745001E-02    3.5517521E-06
  1.5780000E-02    3.6232771E-06
  1.5814999E-02    3.6951842E-06
  1.5850000E-02    3.7576042E-06
  1.5884999E-02    3.8250978E-06
  1.5920000E-02    3.8947915E-06
  1.5954999E-02    3.9539495E-06
  1.5990000E-02    4.0164659E-06
  1.6024999E-02    4.0819100E-06
  1.6060000E-02    4.1344842E-06
  1.6094999E-02    4.1887561E-06
  1.6130000E-02    4.2505571E-06
  1.6164999E-02    4.3007776E-06
  1.6200000E-02    4.3488499E-06
  1.6235000E-02    4.4059998E-06
  1.6270000E-02    4.4547892E-06
  1.6305000E-02    4.4993335E-06
  1.6340001E-02    4.5514903E-06
  1.6375000E-02    4.5954775E-06
  1.6410001E-02    4.6344630E-06
  1.6445000E-02    4.6830378E-06
  1.6480001E-02    4.7247340E-06
  1.6515000E-02    4.7586923E-06
  1.6550001E-02    4.8035040E-06
  1.6585000E-02    4.8452157E-06
  1.6620001E-02    4.8773109E-06
  1.6655000E-02    4.9190744E-06
  1.6690001E-02    4.9597493E-06
  1.6725000E-02    4.9882124E-06
  1.6759999E-02    5.0241365E-06
  1.6795000E-02    5.0621916E-06
  1.6829999E-02    5.0879557E-06
  1.6865000E-02    5.1183338E-06
  1.6899999E-02    5.1515540E-06
  1.6935000E-02    5.1717407E-06
  1.6969999E-02    5.1949864E-06
  1.7005000E-02    5.2244272E-06
  1.7039999E-02    5.2420241E-06
  1.7075000E-02    5.2586875E-06
  1.7109999E-02    5.2806054E-06
  1.7145000E-02    5.2918240E-06
  1.7180000E-02    5.3009535E-06
  1.7215000E-02    5.3142144E-06
  1.7250000E-02    5.3149447E-06
  1.7285001E-02    5.3122781E-06
  1.7320000E-02    5.3170866E-06
  1.7355001E-02    5.3103413E-06
  1.7390000E-02    5.2949476E-06
  1.7425001E-02    5.2858645E-06
  1.7460000E-02    5.2690784E-06
  1.7495001E-02    5.2444852E-06
  1.7530000E-02    5.2261644E-06
  1.7565001E-02    5.2005139E-06
  1.7600000E-02    5.1648044E-06
  1.7635001E-02    5.1357370E-06
  1.7670000E-02    5.1037659E-06
  1.7704999E-02    5.0632539E-06
  1.7740000E-02    5.0293838E-06
  1.7774999E-02    4.9942478E-06
  1.7810000E-02    4.9506903E-06
  1.7844999E-02    4.9156411E-06
  1.7880000E-02    4.8859465E-06
  1.7914999E-02    4.8508741E-06
  1.7950000E-02    4.8208908E-06
  1.7984999E-02    4.7948583E-06
  1.8020000E-02    4.7680451E-06
  1.8054999E-02    4.7519229E-06
  1.8090000E-02    4.7396038E-06
  1.8124999E-02    4.7228987E-06
  1.8160000E-02    4.7208223E-06
  1.8195000E-02    4.7316225E-06
  1.8230001E-02    4.7382450E-06
  1.8265000E-02    4.7550070E-06
  1.8300001E-02    4.7868466E-06
  1.8335000E-02    4.8162929E-06
  1.8370001E-02    4.8529478E-06
  1.8405000E-02    4.9058785E-06
  1.8440001E-02    4.9587406E-06
  1.8475000E-02    5.0149297E-06
  1.8510001E-02    5.0841950E-06
  1.8545000E-02    5.1539728E-06
  1.8580001E-02    5.2246178E-06
  1.8615000E-02    5.3030985E-06
  1.8650001E-02    5.3779168E-06
  1.8685000E-02    5.4505481E-06
  1.8719999E-02    5.5298156E-06
  1.8755000E-02    5.6041963E-06
  1.8789999E-02    5.6711738E-06
  1.8825000E-02    5.7371826E-06
  1.8859999E-02    5.7918110E-06
  1.8895000E-02    5.8353821E-06
  1.8929999E-02    5.8765363E-06
  1.8965000E-02    5.9006866E-06
  1.8999999E-02    5.9038766E-06
  1.9035000E-02    5.9017857E-06
  1.9069999E-02    5.8848555E-06
  1.9105000E-02    5.8406085E-06
  1.9140000E-02    5.7819816E-06
  1.9175000E-02    5.7079810E-06
  1.9210000E-02    5.6062349E-06
  1.9245001E-02    5.4845609E-06
  1.9280000E-02    5.3448025E-06
  1.9315001E-02    5.1757102E-06
  1.9350000E-02    4.9820383E-06
  1.9385001E-02    4.7685626E-06
  1.9420000E-02    4.5255542E-06
  1.9455001E-02    4.2531487E-06
  1.9490000E-02    3.9579618E-06
  1.9525001E-02    3.6364791E-06
  1.9560000E-02    3.2876794E-06
  1.9595001E-02    2.9144865E-06
  1.9630000E-02    2.5125717E-06
  1.9664999E-02    2.0802142E-06
  1.9700000E-02    1.6213246E-06
  1.9734999E-02    1.1326059E-06
  1.9770000E-02    6.0934855E-07
  1.9804999E-02    5.3940791E-08
  1.9840000E-02   -5.3569551E-07
  1.9874999E-02   -1.1659445E-06
  1.9910000E-02   -1.8352430E-06
  1.9944999E-02   -2.5445706E-06
  1.9980000E-02   -3.3041683E-06
  2.0014999E-02   -4.1156400E-06
  2.0050000E-02   -4.9770078E-06
  2.0085000E-02   -5.8998157E-06
  2.0120000E-02   -6.8913405E-06
  2.0155000E-02   -7.9496522E-06
  2.0190001E-02   -9.0857056E-06
  2.0225000E-02   -1.0310278E-05
  2.0260001E-02   -1.1623857E-05
  2.0295000E-02   -1.3041518E-05
  2.0330001E-02   -1.4578005E-05
  2.0365000E-02   -1.6228132E-05
  2.0400001E-02   -1.8003155E-05
  2.0435000E-02   -1.9927647E-05
  2.0470001E-02   -2.2002223E-05
  2.0505000E-02   -2.4231882E-05
  2.0540001E-02   -2.6640751E-05
  2.0575000E-02   -2.9235549E-05
  2.0609999E-02   -3.2021107E-05
  2.0645000E-02   -3.5019941E-05
  2.0679999E-02   -3.8241255E-05
  2.0715000E-02   -4.1690284E-05
  2.0749999E-02   -4.5387704E-05
  2.0785000E-02   -4.9342518E-05
  2.0819999E-02   -5.3559892E-05
  2.0855000E-02   -5.8059304E-05
  2.0889999E-02   -6.2847677E-05
  2.0925000E-02   -6.7927045E-05
  2.0959999E-02   -7.3313793E-05
  2.0995000E-02   -7.9011646E-05
  2.1029999E-02   -8.5018670E-05
  2.1065000E-02   -9.1347829E-05
  2.1100000E-02   -9.7998884E-05
  2.1135001E-02   -1.0496392E-04
  2.1170000E-02   -1.1224997E-04
  2.1205001E-02   -1.1985010E-04
  2.1240000E-02   -1.2774554E-04
  2.1275001E-02   -1.3593296E-04
  2.1310000E-02   -1.4440063E-04
  2.1345001E-02   -1.5312398E-04
  2.1380000E-02   -1.6208498E-04
  2.1415001E-02   -1.7125557E-04
  2.1450000E-02   -1.8060151E-04
  2.1485001E-02   -1.9009404E-04
  2.1520000E-02   -1.9968624E-04
  2.1555001E-02   -2.0932624E-04
  2.1590000E-02   -2.1897261E-04
  2.1624999E-02   -2.2855993E-04
  2.1660000E-02   -2.3801332E-04
  2.1694999E-02   -2.4727260E-04
  2.1730000E-02   -2.5625527E-04
  2.1764999E-02   -2.6486791E-04
  2.1800000E-02   -2.7302830E-04
  2.1834999E-02   -2.8062600E-04
  2.1870000E-02   -2.8754302E-04
  2.1904999E-02   -2.9368102E-04
  2.1940000E-02   -2.9890460E-04
  2.1974999E-02   -3.0306180E-04
  2.2010000E-02   -3.0603202E-04
  2.2045000E-02   -3.0766186E-04
  2.2080000E-02   -3.0777176E-04
  2.2115000E-02   -3.0621648E-04
  2.2150001E-02   -3.0282175E-04
  2.2185000E-02   -2.9738052E-04
  2.2220001E-02   -2.8972403E-04
  2.2255000E-02   -2.7966316E-04
  2.2290001E-02   -2.6697072E-04
  2.2325000E-02   -2.5145838E-04
  2.2360001E-02   -2.3292594E-04
  2.2395000E-02   -2.1113874E-04
  2.2430001E-02   -1.8590411E-04
  2.2465000E-02   -1.5701755E-04
  2.2500001E-02   -1.2423546E-04
  2.2535000E-02   -8.7369503E-05
  2.2569999E-02   -4.6234087E-05
  2.2605000E-02   -5.9746611E-07
  2.2639999E-02    4.9713472E-05
  2.2675000E-02    1.0484751E-04
  2.2709999E-02    1.6499923E-04
  2.2745000E-02    2.3030739E-04
  2.2779999E-02    3.0086844E-04
  2.2815000E-02    3.7681771E-04
  2.2849999E-02    4.5823312E-04
  2.2885000E-02    5.4513005E-04
  2.2919999E-02    6.3755549E-04
  2.2955000E-02    7.3550484E-04
  2.2990000E-02    8.3889050E-04
  2.3025000E-02    9.4763580E-04
  2.3060000E-02    1.0616173E-03
  2.3095001E-02    1.1806249E-03
  2.3130000E-02    1.3044419E-03
  2.3165001E-02    1.4328001E-03
  2.3200000E-02    1.5653291E-03
  2.3235001E-02    1.7016429E-03
  2.3270000E-02    1.8413163E-03
  2.3305001E-02    1.9838149E-03
  2.3340000E-02    2.1285627E-03
  2.3375001E-02    2.2749484E-03
  2.3410000E-02    2.4222615E-03
  2.3445001E-02    2.5697425E-03
  2.3480000E-02    2.7165941E-03
  2.3514999E-02    2.8619282E-03
  2.3550000E-02    3.0048077E-03
  2.3584999E-02    3.1442661E-03
  2.3620000E-02    3.2792578E-03
  2.3654999E-02    3.4086928E-03
  2.3690000E-02    3.5314644E-03
  2.3724999E-02    3.6464145E-03
  2.3760000E-02    3.7523436E-03
  2.3794999E-02    3.8480514E-03
  2.3830000E-02    3.9323205E-03
  2.3864999E-02    4.0039071E-03
  2.3900000E-02    4.0615872E-03
  2.3934999E-02    4.1041588E-03
  2.3970000E-02    4.1304301E-03
  2.4005000E-02    4.1392306E-03
  2.4040001E-02    4.1294536E-03
  2.4075000E-02    4.1000438E-03
  2.4110001E-02    4.0499978E-03
  2.4145000E-02    3.9784038E-03
  2.4180001E-02    3.8844410E-03
  2.4215000E-02    3.7673709E-03
  2.4250001E-02    3.6265720E-03
  2.4285000E-02    3.4615605E-03
  2.4320001E-02    3.2719639E-03
  2.4355000E-02    3.0575481E-03
  2.4390001E-02    2.8182464E-03
  2.4425000E-02    2.5541338E-03
  2.4460001E-02    2.2654389E-03
  2.4495000E-02    1.9525771E-03
  2.4529999E-02    1.6161246E-03
  2.4565000E-02    1.2568276E-03
  2.4599999E-02    8.7562593E-04
  2.4635000E-02    4.7361563E-04
  2.4669999E-02    5.2067517E-05
  2.4705000E-02   -3.8755708E-04
  2.4739999E-02   -8.4365834E-04
  2.4775000E-02   -1.3144790E-03
  2.4809999E-02   -1.7980768E-03
  2.4845000E-02   -2.2923958E-03
  2.4879999E-02   -2.7952695E-03
  2.4915000E-02   -3.3043737E-03
  2.4950000E-02   -3.8172924E-03
  2.4985000E-02   -4.3315599E-03
  2.5020000E-02   -4.8446041E-03
  2.5055001E-02   -5.3537912E-03
  2.5090000E-02   -5.8564940E-03
  2.5125001E-02   -6.3500525E-03
  2.5160000E-02   -6.8317819E-03
  2.5195001E-02   -7.2990600E-03
  2.5230000E-02   -7.7493233E-03
  2.5265001E-02   -8.1800278E-03
  2.5300000E-02   -8.5887285E-03
  2.5335001E-02   -8.9731142E-03
  2.5370000E-02   -9.3309600E-03
  2.5405001E-02   -9.6601900E-03
  2.5440000E-02   -9.9589033E-03
  2.5474999E-02   -1.0225355E-02
  2.5510000E-02   -1.0457979E-02
  2.5544999E-02   -1.0655415E-02
  2.5580000E-02   -1.0816524E-02
  2.5614999E-02   -1.0940365E-02
  2.5650000E-02   -1.1026222E-02
  2.5684999E-02   -1.1073624E-02
  2.5720000E-02   -1.1082310E-02
  2.5754999E-02   -1.1052254E-02
  2.5790000E-02   -1.0983676E-02
  2.5824999E-02   -1.0877014E-02
  2.5860000E-02   -1.0732910E-02
  2.5895000E-02   -1.0552249E-02
  2.5930000E-02   -1.0336109E-02
  2.5965000E-02   -1.0085735E-02
  2.6000001E-02   -9.8025948E-03
  2.6035000E-02   -9.4883190E-03
  2.6070001E-02   -9.1446536E-03
  2.6105000E-02   -8.7735076E-03
  2.6140001E-02   -8.3769346E-03
  2.6175000E-02   -7.9570450E-03
  2.6210001E-02   -7.5160409E-03
  2.6245000E-02   -7.0562302E-03
  2.6280001E-02   -6.5799323E-03
  2.6315000E-02   -6.0894811E-03
  2.6350001E-02   -5.5872588E-03
  2.6385000E-02   -5.0756312E-03
  2.6419999E-02   -4.5569306E-03
  2.6455000E-02   -4.0334514E-03
  2.6489999E-02   -3.5074260E-03
  2.6525000E-02   -2.9810367E-03
  2.6559999E-02   -2.4563812E-03
  2.6595000E-02   -1.9354405E-03
  2.6629999E-02   -1.4201164E-03
  2.6665000E-02   -9.1220805E-04
  2.6699999E-02   -4.1335294E-04
  2.6735000E-02    7.4920797E-05
  2.6769999E-02    5.5117876E-04
  2.6805000E-02    1.0141607E-03
  2.6839999E-02    1.4627583E-03
  2.6875000E-02    1.8959505E-03
  2.6910000E-02    2.3128658E-03
  2.6945001E-02    2.7128069E-03
  2.6980000E-02    3.0951768E-03