 -4.8000002E-03    1.0000000E-24
 -4.7650002E-03    1.0000002E-24
 -4.7300002E-03    1.0000001E-24
 -4.6950001E-03    1.0000000E-24
 -4.6600001E-03    1.0000002E-24
 -4.6250001E-03    1.0000001E-24
 -4.5900000E-03    1.0000000E-24
 -4.5550000E-03    1.0000003E-24
 -4.5200000E-03    1.0000002E-24
 -4.4849999E-03    9.9999963E-25
 -4.4499999E-03    1.0000001E-24
 -4.4149999E-03    1.0000005E-24
 -4.3799998E-03    1.0000000E-24
 -4.3449998E-03    9.9999972E-25
 -4.3100002E-03    1.0000003E-24
 -4.2750002E-03    1.0000003E-24
 -4.2400002E-03    1.0000003E-24
 -4.2050001E-03    1.0000003E-24
 -4.1700001E-03    9.9999982E-25
 -4.1350001E-03    9.9999982E-25
 -4.1000000E-03    1.0000004E-24
 -4.0650000E-03    9.9999982E-25
 -4.0300000E-03    9.9999953E-25
 -3.9949999E-03    1.0000002E-24
 -3.9599999E-03    1.0000003E-24
 -3.9249999E-03    9.9999982E-25
 -3.8900001E-03    1.0000003E-24
 -3.8550000E-03    1.0000006E-24
 -3.8200000E-03    9.9999972E-25
 -3.7849999E-03    9.9999963E-25
 -3.7499999E-03    1.0000005E-24
 -3.7150001E-03    1.0000003E-24
 -3.6800001E-03    9.9999953E-25
 -3.6450000E-03    1.0000000E-24
 -3.6100000E-03    1.0000008E-24
 -3.5750000E-03    1.0000000E-24
 -3.5399999E-03    9.9999923E-25
 -3.5049999E-03    9.9999982E-25
 -3.4700001E-03    1.0000007E-24
 -3.4350001E-03    1.0000003E-24
 -3.4000000E-03    1.0000001E-24
 -3.3650000E-03    9.9999992E-25
 -3.3300000E-03    9.9999972E-25
 -3.2949999E-03    1.0000001E-24
 -3.2599999E-03    1.0000007E-24
 -3.2250001E-03    1.0000003E-24
 -3.1900001E-03    9.9999923E-25
 -3.1550000E-03    9.9999943E-25
 -3.1200000E-03    1.0000006E-24
 -3.0850000E-03    1.0000006E-24
 -3.0499999E-03    9.9999943E-25
 -3.0149999E-03    1.0000000E-24
 -2.9800001E-03    1.0000013E-24
 -2.9450001E-03    1.0000001E-24
 -2.9100000E-03    9.9999864E-25
 -2.8750000E-03    9.9999992E-25
 -2.8400000E-03    1.0000013E-24
 -2.8049999E-03    9.9999992E-25
 -2.7699999E-03    9.9999893E-25
 -2.7350001E-03    9.9999982E-25
 -2.7000001E-03    1.0000006E-24
 -2.6650000E-03    1.0000006E-24
 -2.6300000E-03    1.0000003E-24
 -2.5950000E-03    1.0000000E-24
 -2.5599999E-03    9.9999982E-25
 -2.5249999E-03    1.0000000E-24
 -2.4900001E-03    1.0000001E-24
 -2.4550001E-03    9.9999963E-25
 -2.4200000E-03    9.9999963E-25
 -2.3850000E-03    1.0000001E-24
 -2.3500000E-03    1.0000009E-24
 -2.3149999E-03    1.0000005E-24
 -2.2799999E-03    9.9999923E-25
 -2.2450001E-03    9.9999953E-25
 -2.2100001E-03    1.0000005E-24
 -2.1750000E-03    1.0000001E-24
 -2.1400000E-03    9.9999963E-25
 -2.1050000E-03    1.0000007E-24
 -2.0699999E-03    1.0000012E-24
 -2.0349999E-03    9.9999982E-25
 -2.0000001E-03    9.9999844E-25
 -1.9650001E-03    9.9999913E-25
 -1.9300000E-03    1.0000011E-24
 -1.8950000E-03    1.0000008E-24
 -1.8600000E-03    9.9999963E-25
 -1.8250000E-03    9.9999992E-25
 -1.7900000E-03    1.0000006E-24
 -1.7550000E-03    9.9999933E-25
 -1.7199999E-03    9.9999913E-25
 -1.6850000E-03    1.0000010E-24
 -1.6500000E-03    1.0000009E-24
 -1.6150000E-03    9.9999923E-25
 -1.5800000E-03    9.9999982E-25
 -1.5450000E-03    1.0000007E-24
 -1.5100000E-03    9.9999963E-25
 -1.4750001E-03    9.9999874E-25
 -1.4400000E-03    1.0000007E-24
 -1.4050000E-03    1.0000015E-24
 -1.3700000E-03    9.9999933E-25
 -1.3350000E-03    9.9999923E-25
 -1.3000000E-03    1.0000012E-24
 -1.2650000E-03    1.0000005E-24
 -1.2300001E-03    9.9999874E-25
 -1.1950000E-03    1.0000001E-24
 -1.1600000E-03    1.0000014E-24
 -1.1250000E-03    9.9999982E-25
 -1.0900000E-03    9.9999933E-25
 -1.0550000E-03    1.0000006E-24
 -1.0200000E-03    1.0000004E-24
 -9.8500005E-04    9.9999943E-25
 -9.5000002E-04    1.0000003E-24
 -9.1499998E-04    1.0000009E-24
 -8.8000001E-04    9.9999992E-25
 -8.4499997E-04    9.9999963E-25
 -8.1000000E-04    9.9999972E-25
 -7.7500002E-04    1.0000000E-24
 -7.3999999E-04    1.0000003E-24
 -7.0500001E-04    9.9999992E-25
 -6.6999998E-04    9.9999972E-25
 -6.3500000E-04    1.0000003E-24
 -6.0000003E-04    1.0000002E-24
 -5.6499999E-04    9.9999992E-25
 -5.3000002E-04    1.0000002E-24
 -4.9499999E-04    1.0000005E-24
 -4.6000001E-04    1.0000005E-24
 -4.2500001E-04    1.0000006E-24
 -3.9000000E-04    1.0000007E-24
 -3.5500000E-04    9.9999992E-25
 -3.1999999E-04    9.9999834E-25
 -2.8499999E-04    9.9999933E-25
 -2.5000001E-04    1.0000028E-24
 -2.1499999E-04    9.9999893E-25
 -1.8000000E-04    9.9999440E-25
 -1.4500000E-04    1.0000059E-24
 -1.1000000E-04    1.0000095E-24
 -7.5000004E-05    9.9998483E-25
 -3.9999999E-05    9.9998957E-25
 -4.9999999E-06    1.0000299E-24
  2.9999999E-05    1.0000027E-24
  6.5000000E-05    9.9995328E-25
  9.9999997E-05    1.0000208E-24
  1.3499999E-04    1.0000602E-24
  1.7000000E-04    9.9994312E-25
  2.0500000E-04    9.9996058E-25
  2.3999999E-04    1.0000733E-24
  2.7500000E-04    9.9993563E-25
  3.1000000E-04    9.9988652E-25
  3.4500001E-04    1.0003447E-24
  3.8000001E-04    1.0000474E-24
  4.1499999E-04    9.9906423E-25
  4.4999999E-04    1.0002436E-24
  4.8500000E-04    1.0017549E-24
  5.2000000E-04    9.9878024E-25
  5.5499998E-04    9.9723881E-25
  5.9000001E-04    1.0033524E-24
  6.2499999E-04    1.0038403E-24
  6.6000002E-04    9.9244569E-25
  6.9500000E-04    9.9556130E-25
  7.3000003E-04    1.0137138E-24
  7.6500000E-04    1.0032555E-24
  7.9999998E-04    9.7739077E-25
  8.3500001E-04    1.0003239E-24
  8.6999999E-04    1.0316214E-24
  9.0500002E-04    9.8880746E-25
  9.4000000E-04    9.5816781E-25
  9.7499997E-04    1.0265424E-24
  1.0100000E-03    1.0402721E-24
  1.0450000E-03    9.4957997E-25
  1.0800000E-03    9.6403013E-25
  1.1150000E-03    1.0597632E-24
  1.1500000E-03    9.9151227E-25
  1.1849999E-03    9.4416040E-25
  1.2200000E-03    1.1106128E-24
  1.2550000E-03    1.0583609E-24
  1.2900000E-03    7.4391319E-25
  1.3250000E-03    9.9940798E-25
  1.3600000E-03    1.5100454E-24
  1.3950000E-03    7.1297663E-25
  1.4299999E-03    1.6353837E-25
  1.4650000E-03    1.7479529E-24
  1.5000000E-03    2.3127120E-24
  1.5350000E-03   -2.3556535E-25
  1.5700000E-03   -1.0183598E-24
  1.6050000E-03    3.0657898E-24
  1.6400000E-03    3.6229798E-24
  1.6749999E-03   -1.9932628E-24
  1.7100000E-03   -2.2188291E-24
  1.7450000E-03    5.6433397E-24
  1.7800000E-03    6.0699620E-24
  1.8150000E-03   -5.1065791E-24
  1.8500000E-03   -5.9688245E-24
  1.8850000E-03    8.0148631E-24
  1.9200000E-03    9.0211309E-24
  1.9550000E-03   -8.2022381E-24
  1.9900000E-03   -6.9416131E-24
  2.0250001E-03    5.7834020E-24
  2.0600001E-03    3.7083933E-24
  2.0949999E-03    3.9502450E-24
  2.1299999E-03    6.5340733E-24
  2.1650000E-03   -2.5085965E-23
  2.2000000E-03   -1.0725936E-23
  2.2350000E-03    5.0560150E-23
  2.2700001E-03    1.0283767E-23
  2.3050001E-03   -1.1097752E-22
  2.3399999E-03   -2.9541424E-23
  2.3749999E-03    1.6017152E-22
  2.4100000E-03    1.4300228E-23
  2.4450000E-03   -2.2220026E-22
  2.4800000E-03   -5.4015849E-23
  2.5150001E-03    3.0307685E-22
  2.5500001E-03    1.4506378E-22
  2.5849999E-03   -3.5011765E-22
  2.6199999E-03   -2.3162698E-22
  2.6550000E-03    4.6151165E-22
  2.6900000E-03    3.3881907E-22
  2.7250000E-03   -7.7650207E-22
  2.7600001E-03   -5.3181731E-22
  2.7950001E-03    6.1843984E-22
  2.8299999E-03    6.5964221E-22
  2.8649999E-03   -8.1321926E-22
  2.9000000E-03   -1.0337208E-21
  2.9350000E-03    1.0369339E-21
  2.9700000E-03    1.7788038E-21
  3.0050001E-03   -1.5054074E-21
  3.0400001E-03   -2.8652842E-21
  3.0749999E-03    6.4118539E-22
  3.1099999E-03    2.4049438E-21
  3.1450000E-03    9.7677593E-24
  3.1800000E-03   -3.3065943E-21
  3.2150000E-03   -1.8224186E-21
  3.2500001E-03    5.0170100E-21
  3.2850001E-03    7.0164448E-21
  3.3199999E-03   -6.5481338E-21
  3.3549999E-03   -1.1147718E-20
  3.3900000E-03    1.1187485E-20
  3.4250000E-03    1.7178199E-20
  3.4600000E-03   -9.7934339E-21
  3.4950001E-03   -2.3977066E-20
  3.5300001E-03    1.1388001E-20
  3.5649999E-03    5.0371991E-20
  3.5999999E-03   -1.8670665E-22
  3.6350000E-03   -8.0627143E-20
  3.6700000E-03   -2.1936778E-20
  3.7050000E-03    9.3445411E-20
  3.7400001E-03    5.1195455E-20
  3.7750001E-03   -1.1435255E-19
  3.8099999E-03   -1.1242478E-19
  3.8449999E-03    1.1980539E-19
  3.8800000E-03    1.8752222E-19
  3.9149998E-03   -9.5693914E-20
  3.9499998E-03   -2.8274158E-19
  3.9849998E-03    1.6891041E-20
  4.0199999E-03    4.0096120E-19
  4.0549999E-03    8.6820509E-20
  4.0899999E-03   -5.1908024E-19
  4.1250000E-03   -2.8975847E-19
  4.1600000E-03    5.3835442E-19
  4.1950000E-03    5.6697141E-19
  4.2300001E-03   -5.1125056E-19
  4.2650001E-03   -9.7634692E-19
  4.3000001E-03    1.5137130E-19
  4.3350002E-03    1.3634557E-18
  4.3700002E-03    4.4975061E-19
  4.4049998E-03   -1.5421578E-18
  4.4399998E-03   -1.2346388E-18
  4.4749998E-03    1.2631203E-18
  4.5099999E-03    2.1135015E-18
  4.5449999E-03   -5.7215700E-19
  4.5799999E-03   -2.8699505E-18
  4.6150000E-03   -1.1893393E-18
  4.6500000E-03    3.0822869E-18
  4.6850001E-03    3.7737957E-18
  4.7200001E-03   -1.8369301E-18
  4.7550001E-03   -6.8477460E-18
  4.7900002E-03   -1.0302385E-18
  4.8250002E-03    9.6464653E-18
  4.8600002E-03    6.5773535E-18
  4.8949998E-03   -1.0885565E-17
  4.9299998E-03   -1.4981371E-17
  4.9649999E-03    8.4509147E-18
  4.9999999E-03    2.4878441E-17
  5.0349999E-03    6.3318598E-19
  5.0700000E-03   -3.5082593E-17
  5.1050000E-03   -1.9156535E-17
  5.1400000E-03    3.9787596E-17
  5.1750001E-03    4.6803285E-17
  5.2100001E-03   -3.4052845E-17
  5.2450001E-03   -8.2970497E-17
  5.2800002E-03    9.7339968E-18
  5.3150002E-03    1.2293140E-16
  5.3500002E-03    4.3822960E-17
  5.3849998E-03   -1.5621925E-16
  5.4199998E-03   -1.3081781E-16
  5.4549999E-03    1.6623722E-16
  5.4899999E-03    2.5460161E-16
  5.5249999E-03   -1.2926955E-16
  5.5600000E-03   -4.0296425E-16
  5.5950000E-03    1.9538875E-17
  5.6300000E-03    5.5128801E-16
  5.6650001E-03    1.8277673E-16
  5.7000001E-03   -6.6262392E-16
  5.7350001E-03   -4.9387929E-16
  5.7700002E-03    6.7842739E-16
  5.8050002E-03    8.9542817E-16
  5.8400002E-03   -5.3393812E-16
  5.8749998E-03   -1.3495312E-15
  5.9099998E-03    1.5885603E-16
  5.9449999E-03    1.7718014E-15
  5.9799999E-03    5.0134197E-16
  6.0149999E-03   -2.0331774E-15
  6.0500000E-03   -1.4504635E-15
  6.0850000E-03    1.9730087E-15
  6.1200000E-03    2.6342494E-15
  6.1550001E-03   -1.4179015E-15
  6.1900001E-03   -3.9049866E-15
  6.2250001E-03    2.1163580E-16
  6.2600002E-03    5.0132293E-15
  6.2950002E-03    1.7171538E-15
  6.3299998E-03   -5.6375265E-15
  6.3649998E-03   -4.3436802E-15
  6.3999998E-03    5.3860983E-15
  6.4349999E-03    7.4382706E-15
  6.4699999E-03   -3.8988545E-15
  6.5049999E-03   -1.0600944E-14
  6.5400000E-03    8.9431348E-16
  6.5750000E-03    1.3206476E-14
  6.6100000E-03    3.6761175E-15
  6.6450001E-03   -1.4528443E-14
  6.6800001E-03   -9.5931894E-15
  6.7150001E-03    1.3770308E-14
  6.7500002E-03    1.6265182E-14
  6.7850002E-03   -1.0260202E-14
  6.8199998E-03   -2.2732257E-14
  6.8549998E-03    3.5984509E-15
  6.8899998E-03    2.7697850E-14
  6.9249999E-03    6.1333084E-15
  6.9599999E-03   -2.9715806E-14
  6.9949999E-03   -1.8240414E-14
  7.0300000E-03    2.7438560E-14
  7.0650000E-03    3.1400765E-14
  7.1000000E-03   -1.9887078E-14
  7.1350001E-03   -4.3734988E-14
  7.1700001E-03    6.7013998E-15
  7.2050001E-03    5.2973789E-14
  7.2400002E-03    1.1608241E-14
  7.2750002E-03   -5.6770960E-14
  7.3099998E-03   -3.3516968E-14
  7.3449998E-03    5.3136491E-14
  7.3799998E-03    5.6538765E-14
  7.4149999E-03   -4.0898698E-14
  7.4499999E-03   -7.7521390E-14
  7.4850000E-03    2.0003965E-14
  7.5200000E-03    9.3097269E-14
  7.5550000E-03    8.3362763E-15
  7.5900001E-03   -1.0022111E-13
  7.6250001E-03   -4.1870983E-14
  7.6600001E-03    9.6483138E-14
  7.6950002E-03    7.7558192E-14
  7.7300002E-03   -8.0315820E-14
  7.7650002E-03   -1.1176932E-13
  7.7999998E-03    5.1096266E-14
  7.8349998E-03    1.4050080E-13
  7.8699999E-03   -9.3792043E-15
  7.9049999E-03   -1.5987273E-13
  7.9399999E-03   -4.3331038E-14
  7.9750000E-03    1.6622902E-13
  8.0100000E-03    1.0473922E-13
  8.0450000E-03   -1.5602514E-13
  8.0800001E-03   -1.7185274E-13
  8.1150001E-03    1.2538973E-13
  8.1500001E-03    2.4011199E-13
  8.1850002E-03   -7.0113098E-14
  8.2200002E-03   -3.0198657E-13
  8.2550002E-03   -1.2692963E-14
  8.2900003E-03    3.4649754E-13
  8.3250003E-03    1.2248214E-13
  8.3600003E-03   -3.5989893E-13
  8.3950004E-03   -2.5321699E-13
  8.4300004E-03    3.2744250E-13
  8.4650004E-03    3.9187750E-13
  8.5000005E-03   -2.3554027E-13
  8.5349996E-03   -5.1679098E-13
  8.5699996E-03    7.5466306E-14
  8.6049996E-03    5.9656712E-13
  8.6399997E-03    1.5010328E-13
  8.6749997E-03   -5.9283410E-13
  8.7099997E-03   -4.1987008E-13
  8.7449998E-03    4.6853222E-13
  8.7799998E-03    6.8992652E-13
  8.8149998E-03   -2.0058564E-13
  8.8499999E-03   -8.9674622E-13
  8.8849999E-03   -2.0706740E-13
  8.9199999E-03    9.6854089E-13
  8.9550000E-03    7.1588699E-13
  8.9900000E-03   -8.4001653E-13
  9.0250000E-03   -1.2502213E-12
  9.0600001E-03    4.7037407E-13
  9.0950001E-03    1.7009774E-12
  9.1300001E-03    1.3482772E-13
  9.1650002E-03   -1.9418117E-12
  9.2000002E-03   -9.0371032E-13
  9.2350002E-03    1.8636238E-12
  9.2700003E-03    1.6960525E-12
  9.3050003E-03   -1.4174145E-12
  9.3400003E-03   -2.3308360E-12
  9.3750004E-03    6.4173487E-13
  9.4100004E-03    2.6305009E-12
  9.4450004E-03    3.3468741E-13
  9.4799995E-03   -2.4651162E-12
  9.5149996E-03   -1.3094452E-12
  9.5499996E-03    1.7910449E-12
  9.5849996E-03    2.0383506E-12
  9.6199997E-03   -6.8611761E-13
  9.6549997E-03   -2.2969001E-12
  9.6899997E-03   -6.4624911E-13
  9.7249998E-03    1.9554963E-12
  9.7599998E-03    1.9224513E-12
  9.7949998E-03   -1.0303753E-12
  9.8299999E-03   -2.8560203E-12
  9.8649999E-03   -3.0828972E-13
  9.8999999E-03    3.2404890E-12
  9.9350000E-03    1.7703327E-12
  9.9700000E-03   -3.0220173E-12
  1.0005000E-02   -3.0240495E-12
  1.0040000E-02    2.3341817E-12
  1.0075000E-02    3.8047889E-12
  1.0110000E-02   -1.4667321E-12
  1.0145000E-02   -4.0067051E-12
  1.0180000E-02    7.8382916E-13
  1.0215000E-02    3.7332884E-12
  1.0250000E-02   -6.1973625E-13
  1.0285000E-02   -3.3166805E-12
  1.0320000E-02    1.1291817E-12
  1.0355000E-02    3.2481420E-12
  1.0390000E-02   -2.1339274E-12
  1.0425000E-02   -3.9618218E-12
  1.0460000E-02    3.1170641E-12
  1.0495000E-02    5.5865239E-12
  1.0530000E-02   -3.4055122E-12
  1.0565000E-02   -7.8330615E-12
  1.0600000E-02    2.4079419E-12
  1.0635000E-02    1.0014206E-11
  1.0670000E-02    1.8123463E-13
  1.0705000E-02   -1.1104687E-11
  1.0740000E-02   -4.1001187E-12
  1.0775000E-02    1.0030749E-11
  1.0810000E-02    8.3704692E-12
  1.0845000E-02   -6.1275898E-12
  1.0880000E-02   -1.1445169E-11
  1.0915000E-02   -4.2674306E-13
  1.0950000E-02    1.1682114E-11
  1.0985000E-02    8.4876099E-12
  1.1020000E-02   -7.8669606E-12
  1.1055000E-02   -1.6020508E-11
  1.1090000E-02   -1.3469908E-13
  1.1125000E-02    2.0711243E-11
  1.1160000E-02    1.1096158E-11
  1.1195000E-02   -2.0826471E-11
  1.1230000E-02   -2.2764091E-11
  1.1265000E-02    1.5830065E-11
  1.1300000E-02    3.2602546E-11
  1.1335000E-02   -6.3189250E-12
  1.1370000E-02   -3.8107587E-11
  1.1405000E-02   -5.6775981E-12
  1.1440000E-02    3.7646622E-11
  1.1475000E-02    1.6924410E-11
  1.1510000E-02   -3.1469306E-11
  1.1545000E-02   -2.4178552E-11
  1.1580000E-02    2.1986824E-11
  1.1615000E-02    2.6021940E-11
  1.1650000E-02   -1.1934309E-11
  1.1685000E-02   -2.2299712E-11
  1.1720000E-02    4.2232593E-12
  1.1755000E-02    1.4405758E-11
  1.1790000E-02   -1.0816630E-12
  1.1825000E-02   -5.0000503E-12
  1.1860000E-02    3.6519026E-12
  1.1895000E-02   -1.7274446E-12
  1.1930000E-02   -9.3801971E-12
  1.1965000E-02    4.1302092E-12
  1.2000000E-02    1.5442262E-11
  1.2035000E-02   -1.8381191E-12
  1.2070000E-02   -1.8764065E-11
  1.2105000E-02   -3.7671450E-12
  1.2140000E-02    1.7158504E-11
  1.2175000E-02    1.1094052E-11
  1.2210000E-02   -6.7638391E-12
  1.2245000E-02   -1.2482700E-11
  1.2280000E-02   -8.4160005E-12
  1.2315000E-02    4.9292293E-12
  1.2350000E-02    2.3767021E-11
  1.2385000E-02    1.3163865E-11
  1.2420000E-02   -3.2340144E-11
  1.2455000E-02   -3.7336956E-11
  1.2490000E-02    3.2622495E-11
  1.2525000E-02    6.6679676E-11
  1.2560000E-02   -1.7413139E-11
  1.2595000E-02   -9.0602748E-11
  1.2630000E-02   -1.0365891E-11
  1.2665000E-02    1.0257142E-10
  1.2700000E-02    4.6486551E-11
  1.2735000E-02   -9.4448151E-11
  1.2770000E-02   -7.5415896E-11
  1.2805000E-02    7.4772979E-11
  1.2840000E-02    9.8327797E-11
  1.2875000E-02   -3.9251821E-11
  1.2910000E-02   -9.9619181E-11
  1.2945000E-02    4.5915836E-12
  1.2980000E-02    8.4868675E-11
  1.3015000E-02    2.6446153E-11
  1.3050000E-02   -4.7787753E-11
  1.3085000E-02   -3.0676794E-11
  1.3120000E-02    1.7795569E-11
  1.3155000E-02    2.8661714E-11
  1.3190000E-02    1.5992374E-11
  1.3225000E-02   -4.2801314E-12
  1.3260000E-02   -2.8168126E-11
  1.3295000E-02   -1.9600505E-11
  1.3330000E-02    2.7423654E-11
  1.3365000E-02    4.8460479E-11
  1.3400000E-02    4.2346452E-12
  1.3435000E-02   -4.1101365E-11
  1.3470000E-02   -1.6406741E-11
  1.3505000E-02    3.6407155E-11
  1.3540000E-02    3.9202575E-11
  1.3575000E-02   -8.7144376E-14
  1.3610000E-02   -2.5674771E-11
  1.3645000E-02   -1.9974470E-11
  1.3680000E-02    1.0011950E-11
  1.3715000E-02    5.8628720E-11
  1.3750000E-02    6.1082417E-11
  1.3785000E-02   -3.8126551E-11
  1.3820000E-02   -1.0417713E-10
  1.3855000E-02    1.2104108E-11
  1.3890000E-02    1.5756381E-10
  1.3925000E-02    6.5851137E-11
  1.3960000E-02   -1.5277619E-10
  1.3995000E-02   -1.2054659E-10
  1.4030000E-02    1.5903041E-10
  1.4065000E-02    2.2337907E-10
  1.4100000E-02   -7.1700361E-11
  1.4135000E-02   -2.4744554E-10
  1.4170000E-02   -1.6447829E-11
  1.4205000E-02    2.3793958E-10
  1.4240000E-02    1.2359432E-10
  1.4275000E-02   -1.6095464E-10
  1.4310000E-02   -1.6454427E-10
  1.4345000E-02    1.1752885E-10
  1.4380000E-02    2.4544600E-10
  1.4415000E-02    1.6887897E-11
  1.4450000E-02   -1.9825123E-10
  1.4485000E-02   -8.4065567E-11
  1.4520000E-02    1.4083655E-10
  1.4555000E-02    1.4863547E-10
  1.4590000E-02   -2.9439035E-11
  1.4625000E-02   -1.3258597E-10
  1.4660000E-02   -2.4250976E-11
  1.4695000E-02    1.4381510E-10
  1.4730000E-02    1.2562429E-10
  1.4765000E-02   -5.2372988E-11
  1.4800000E-02   -1.2626583E-10
  1.4835000E-02   -1.8596718E-11
  1.4870000E-02    7.2821298E-11
  1.4905000E-02    3.7194445E-11
  1.4940000E-02   -3.3527455E-11
  1.4975000E-02   -4.1631695E-11
  1.5010000E-02    3.0584445E-11
  1.5045000E-02    1.0893721E-10
  1.5080000E-02    4.9585485E-11
  1.5115000E-02   -8.7178181E-11
  1.5150000E-02   -9.0255269E-11
  1.5185000E-02    1.7722762E-11
  1.5220000E-02    4.3553796E-11
  1.5255000E-02    3.9175317E-12
  1.5290000E-02   -2.3787514E-11
  1.5325000E-02   -4.8315844E-11
  1.5360000E-02   -2.8293501E-11
  1.5395000E-02    4.3984601E-11
  1.5430000E-02    4.1768734E-11
  1.5465000E-02   -1.5845197E-11
  1.5500000E-02   -4.1921275E-11
  1.5535000E-02   -7.0090427E-11
  1.5570000E-02   -3.2395746E-11
  1.5605000E-02    8.2253669E-11
  1.5640000E-02    3.9864813E-11
  1.5675001E-02   -1.6132222E-10
  1.5710000E-02   -1.7165618E-10
  1.5745001E-02    7.6650762E-11
  1.5780000E-02    1.6826826E-10
  1.5814999E-02   -1.0526022E-10
  1.5850000E-02   -3.2227301E-10
  1.5884999E-02   -6.6913725E-11
  1.5920000E-02    2.6059457E-10
  1.5954999E-02    9.5675627E-11
  1.5990000E-02   -2.3558033E-10
  1.6024999E-02   -1.4522376E-10
  1.6060000E-02    1.1993861E-10
  1.6094999E-02    8.4313910E-11
  1.6130000E-02   -1.3024473E-10
  1.6164999E-02   -1.8397230E-10
  1.6200000E-02   -3.1024187E-11
  1.6235000E-02    9.7625623E-11
  1.6270000E-02   -2.0215310E-11
  1.6305000E-02   -1.8735422E-10
  1.6340001E-02   -1.0492774E-10
  1.6375000E-02   -1.8644256E-11
  1.6410001E-02   -1.0050960E-10
  1.6445000E-02    3.3375264E-12
  1.6480001E-02    1.7296317E-10
  1.6515000E-02   -7.6113886E-11
  1.6550001E-02   -3.1507968E-10
  1.6585000E-02    9.7496542E-12
  1.6620001E-02    2.8976690E-10
  1.6655000E-02   -4.3234138E-11
  1.6690001E-02   -3.8264492E-10
  1.6725000E-02   -1.2743551E-10
  1.6759999E-02    2.9481398E-10
  1.6795000E-02    2.0905568E-10
  1.6829999E-02   -1.9695248E-10
  1.6865000E-02   -2.3827645E-10
  1.6899999E-02    5.4546513E-11
  1.6935000E-02    8.7324085E-11
  1.6969999E-02   -5.2232881E-11
  1.7005000E-02    4.7823138E-11
  1.7039999E-02    8.2411515E-11
  1.7075000E-02   -1.5041222E-10
  1.7109999E-02   -5.9546590E-11
  1.7145000E-02    3.7255757E-10
  1.7180000E-02    2.8189179E-10
  1.7215000E-02   -2.8730918E-10
  1.7250000E-02   -3.2108580E-10
  1.7285001E-02    2.3980373E-10
  1.7320000E-02    3.8520540E-10
  1.7355001E-02   -1.4512792E-10
  1.7390000E-02   -3.5125927E-10
  1.7425001E-02    3.0013061E-10
  1.7460000E-02    6.8027650E-10
  1.7495001E-02   -5.8832460E-11
  1.7530000E-02   -5.6883170E-10
  1.7565001E-02    1.9872662E-10
  1.7600000E-02    7.1854217E-10
  1.7635001E-02   -1.9595605E-11
  1.7670000E-02   -5.2224336E-10
  1.7704999E-02   -4.0090466E-12
  1.7740000E-02    4.6714566E-10
  1.7774999E-02    4.0115364E-10
  1.7810000E-02    1.0800988E-10
  1.7844999E-02   -1.9746056E-10
  1.7880000E-02   -1.5685221E-10
  1.7914999E-02    1.9772958E-10
  1.7950000E-02    3.9713538E-10
  1.7984999E-02    3.6324777E-10
  1.8020000E-02   -2.3733546E-11
  1.8054999E-02   -5.2655913E-10
  1.8090000E-02   -3.4678111E-11
  1.8124999E-02    9.4547470E-10
  1.8160000E-02    4.8729354E-10
  1.8195000E-02   -6.8557016E-10
  1.8230001E-02   -5.3435656E-10
  1.8265000E-02    2.8700631E-10
  1.8300001E-02    4.3183018E-10
  1.8335000E-02    1.3964356E-10
  1.8370001E-02   -2.1672447E-10
  1.8405000E-02   -2.4010383E-10
  1.8440001E-02    2.8909061E-10
  1.8475000E-02    4.3791590E-10
  1.8510001E-02    5.3869419E-11
  1.8545000E-02    3.2971414E-11
  1.8580001E-02   -7.1325272E-11
  1.8615000E-02   -4.4071452E-10
  1.8650001E-02   -1.0119298E-11
  1.8685000E-02    3.9833917E-10
  1.8719999E-02   -3.0488626E-10
  1.8755000E-02   -4.7778870E-10
  1.8789999E-02    3.2770875E-10
  1.8825000E-02    2.0877877E-10
  1.8859999E-02   -4.9199689E-10
  1.8895000E-02   -2.7938488E-10
  1.8929999E-02    1.8120432E-10
  1.8965000E-02    1.6975031E-10
  1.8999999E-02   -1.0290026E-10
  1.9035000E-02   -5.6027366E-10
  1.9069999E-02   -3.9272202E-10
  1.9105000E-02    5.2483545E-10
  1.9140000E-02    4.1328696E-10
  1.9175000E-02   -6.6391742E-10
  1.9210000E-02   -6.7083267E-10
  1.9245001E-02   -4.1511183E-12
  1.9280000E-02   -4.4991795E-11
  1.9315001E-02   -1.4988281E-10
  1.9350000E-02   -7.4731749E-11
  1.9385001E-02   -4.3220350E-10
  1.9420000E-02   -4.8665283E-10
  1.9455001E-02    7.5567289E-11
  1.9490000E-02    1.2772826E-10
  1.9525001E-02   -2.6744007E-10
  1.9560000E-02   -2.5234989E-10
  1.9595001E-02   -1.5799580E-10
  1.9630000E-02   -1.9141472E-10
  1.9664999E-02   -5.0122454E-12
  1.9700000E-02   -4.6564280E-11
  1.9734999E-02   -3.4277153E-10
  1.9770000E-02   -3.7978024E-11
  1.9804999E-02    2.7720001E-10
  1.9840000E-02   -3.1635289E-10
  1.9874999E-02   -5.8582855E-10
  1.9910000E-02    1.4115256E-11
  1.9944999E-02   -2.5476900E-11
  1.9980000E-02   -4.2327306E-10
  2.0014999E-02   -3.9132930E-11
  2.0050000E-02   -1.0445526E-10
  2.0085000E-02   -6.5704731E-10
  2.0120000E-02    1.1967514E-10
  2.0155000E-02    8.7057406E-10
  2.0190001E-02   -2.8213697E-11
  2.0225000E-02   -4.5665688E-10
  2.0260001E-02    1.2934667E-10
  2.0295000E-02    8.5317801E-11
  2.0330001E-02    1.6603356E-10
  2.0365000E-02    3.2370773E-10
  2.0400001E-02   -6.9413936E-10
  2.0435000E-02   -7.0434641E-10
  2.0470001E-02    7.3782835E-10
  2.0505000E-02    2.0964502E-10
  2.0540001E-02   -9.4398300E-10
  2.0575000E-02    2.6590186E-10
  2.0609999E-02    9.4384933E-10
  2.0645000E-02   -1.5668926E-10
  2.0679999E-02   -1.1166816E-10
  2.0715000E-02    4.4868828E-10
  2.0749999E-02    2.6765820E-10
  2.0785000E-02    5.2784122E-10
  2.0819999E-02    1.0025868E-10
  2.0855000E-02   -1.0220241E-09
  2.0889999E-02   -8.9988100E-11
  2.0925000E-02    1.0632017E-09
  2.0959999E-02   -2.4960990E-11
  2.0995000E-02   -4.7876136E-10
  2.1029999E-02    3.6431080E-10
  2.1065000E-02    6.5862579E-11
  2.1100000E-02   -2.7980976E-10
  2.1135001E-02    4.1824996E-10
  2.1170000E-02    6.1986499E-10
  2.1205001E-02    2.1985250E-10
  2.1240000E-02   -3.0916472E-10
  2.1275001E-02   -4.6673598E-10
  2.1310000E-02    6.5409267E-10
  2.1345001E-02    1.2000989E-09
  2.1380000E-02   -1.9161570E-10
  2.1415001E-02   -7.4181139E-10
  2.1450000E-02   -2.6368697E-11
  2.1485001E-02   -7.7834156E-11
  2.1520000E-02    1.7851774E-10
  2.1555001E-02    8.8165819E-10
  2.1590000E-02    1.7690496E-10
  2.1624999E-02   -5.7364025E-10
  2.1660000E-02   -1.2033358E-10
  2.1694999E-02    2.6300101E-10
  2.1730000E-02    5.1097665E-10
  2.1764999E-02    6.9188863E-11
  2.1800000E-02   -1.0407530E-09
  2.1834999E-02    7.0550727E-12
  2.1870000E-02    1.5655153E-09
  2.1904999E-02   -2.5949349E-11
  2.1940000E-02   -1.0027728E-09
  2.1974999E-02    8.4486979E-10
  2.2010000E-02    1.0437556E-09
  2.2045000E-02   -3.4920308E-10
  2.2080000E-02   -6.9257478E-10
  2.2115000E-02   -1.0272914E-09
  2.2150001E-02   -4.1516915E-10
  2.2185000E-02    1.1430351E-09
  2.2220001E-02    2.3430735E-10
  2.2255000E-02   -7.9223017E-10
  2.2290001E-02    6.4484207E-10
  2.2325000E-02    5.8969574E-10
  2.2360001E-02   -1.1989870E-10
  2.2395000E-02    1.1230129E-09
  2.2430001E-02   -8.9479812E-12
  2.2465000E-02   -2.0661199E-09
  2.2500001E-02    3.1340958E-10
  2.2535000E-02    1.7716951E-09
  2.2569999E-02   -8.2878432E-10
  2.2605000E-02   -1.1671639E-09
  2.2639999E-02    1.0442006E-10
  2.2675000E-02   -8.0860915E-11
  2.2709999E-02    1.2939215E-09
  2.2745000E-02    1.3193268E-09
  2.2779999E-02   -2.0634221E-09
  2.2815000E-02   -1.2660666E-09
  2.2849999E-02    2.2012274E-09
  2.2885000E-02    5.1302990E-10
  2.2919999E-02   -8.3574458E-10
  2.2955000E-02    1.4191914E-09
  2.2990000E-02   -7.7582635E-11
  2.3025000E-02   -2.3832707E-09
  2.3060000E-02    3.7081155E-10
  2.3095001E-02    1.6002978E-09
  2.3130000E-02   -4.4941295E-10
  2.3165001E-02    2.3812258E-10
  2.3200000E-02    6.8962086E-10
  2.3235001E-02   -1.3802243E-09
  2.3270000E-02   -7.6726109E-10
  2.3305001E-02    1.1877634E-09
  2.3340000E-02    9.8790254E-11
  2.3375001E-02   -5.2112753E-10
  2.3410000E-02    9.8435204E-10
  2.3445001E-02    2.8752220E-10
  2.3480000E-02   -9.8995712E-10
  2.3514999E-02    4.2028875E-10
  2.3550000E-02    1.6940243E-09
  2.3584999E-02    6.9180023E-10
  2.3620000E-02   -1.9425681E-09
  2.3654999E-02   -2.3220426E-09
  2.3690000E-02    1.5851110E-09
  2.3724999E-02    2.9380018E-09
  2.3760000E-02   -4.7489102E-10
  2.3794999E-02   -1.3784628E-09
  2.3830000E-02    7.8668161E-10
  2.3864999E-02    4.4001305E-10
  2.3900000E-02   -4.9368792E-10
  2.3934999E-02   -2.3870342E-10
  2.3970000E-02   -6.1901190E-10
  2.4005000E-02   -8.5800278E-10
  2.4040001E-02    2.0474365E-11
  2.4075000E-02    1.7533089E-09
  2.4110001E-02    2.0901985E-09
  2.4145000E-02   -5.0814503E-10
  2.4180001E-02   -2.2056363E-09
  2.4215000E-02   -1.0154090E-09
  2.4250001E-02    9.7094344E-10
  2.4285000E-02    1.5491027E-09
  2.4320001E-02    5.9263855E-10
  2.4355000E-02    3.8081913E-10
  2.4390001E-02    1.8633446E-09
  2.4425000E-02   -9.9207864E-11
  2.4460001E-02   -3.7694323E-09
  2.4495000E-02   -7.6580403E-10
  2.4529999E-02    2.4985298E-09
  2.4565000E-02   -4.5086440E-10
  2.4599999E-02   -1.8678376E-10
  2.4635000E-02    2.1366604E-09
  2.4669999E-02   -2.1951487E-09
  2.4705000E-02   -2.1426025E-09
  2.4739999E-02    4.3647810E-09
  2.4775000E-02    5.9563560E-10
  2.4809999E-02   -4.1817776E-09
  2.4845000E-02    2.0020670E-09
  2.4879999E-02    1.5412769E-09
  2.4915000E-02   -4.3075268E-09
  2.4950000E-02    2.2682707E-09
  2.4985000E-02    4.0606754E-09
  2.5020000E-02   -4.0880703E-09
  2.5055001E-02   -4.1101145E-10
  2.5090000E-02    4.8955897E-09
  2.5125001E-02   -2.2114883E-09
  2.5160000E-02   -8.8700369E-10
  2.5195001E-02    6.5319585E-09
  2.5230000E-02   -1.0347762E-09
  2.5265001E-02   -7.3505113E-09
  2.5300000E-02    7.5221540E-10
  2.5335001E-02    1.0814517E-09
  2.5370000E-02   -5.3650995E-09
  2.5405001E-02    2.3021471E-09
  2.5440000E-02    8.3608125E-09
  2.5474999E-02   -2.8798459E-09
  2.5510000E-02   -6.1874346E-09
  2.5544999E-02    4.5559081E-09
  2.5580000E-02    5.1524118E-09
  2.5614999E-02   -4.1753223E-09
  2.5650000E-02   -1.8203422E-09
  2.5684999E-02    5.3363052E-09
  2.5720000E-02   -1.3836492E-10
  2.5754999E-02   -6.5894668E-09
  2.5790000E-02    1.1492450E-09
  2.5824999E-02    4.0040864E-09
  2.5860000E-02   -4.9211231E-09
  2.5895000E-02   -5.2107225E-09
  2.5930000E-02    5.5263398E-09
  2.5965000E-02    5.6333342E-09
  2.6000001E-02   -4.3037067E-09
  2.6035000E-02   -5.1218967E-09
  2.6070001E-02    2.6507256E-09
  2.6105000E-02    3.0883194E-09
  2.6140001E-02   -1.6188472E-09
  2.6175000E-02   -9.6666952E-10
  2.6210001E-02    6.2844302E-10
  2.6245000E-02   -3.3003905E-10
  2.6280001E-02   -1.6028811E-09
  2.6315000E-02   -1.2906831E-09
  2.6350001E-02    1.8180943E-10
  2.6385000E-02   -4.6342449E-10
  2.6419999E-02    4.0157089E-11
  2.6455000E-02    5.2849031E-10
  2.6489999E-02   -2.1454278E-09
  2.6525000E-02   -2.5673599E-09
  2.6559999E-02    2.3630178E-09
  2.6595000E-02    1.9221911E-09
  2.6629999E-02   -2.6781386E-09
  2.6665000E-02   -5.3664145E-10
  2.6699999E-02    2.6938607E-09
  2.6735000E-02   -1.5046769E-10
  2.6769999E-02   -2.5159284E-09
  2.6805000E-02   -2.3006443E-09
  2.6839999E-02   -7.3005274E-10
  2.6875000E-02    3.1457701E-09
  2.6910000E-02    2.9820222E-09
  2.6945001E-02   -1.7155527E-09
  2.6980000E-02   -1.7030501E-09