 -4.8000002E-03    1.0000000E-24
 -4.7650002E-03    1.0000000E-24
 -4.7300002E-03    1.0000002E-24
 -4.6950001E-03    1.0000002E-24
 -4.6600001E-03    1.0000002E-24
 -4.6250001E-03    1.0000000E-24
 -4.5900000E-03    1.0000000E-24
 -4.5550000E-03    1.0000002E-24
 -4.5200000E-03    1.0000002E-24
 -4.4849999E-03    1.0000002E-24
 -4.4499999E-03    1.0000001E-24
 -4.4149999E-03    9.9999982E-25
 -4.3799998E-03    9.9999982E-25
 -4.3449998E-03    1.0000005E-24
 -4.3100002E-03    1.0000006E-24
 -4.2750002E-03    9.9999992E-25
 -4.2400002E-03    9.9999963E-25
 -4.2050001E-03    1.0000001E-24
 -4.1700001E-03    1.0000002E-24
 -4.1350001E-03    9.9999992E-25
 -4.1000000E-03    1.0000000E-24
 -4.0650000E-03    1.0000002E-24
 -4.0300000E-03    1.0000002E-24
 -3.9949999E-03    1.0000003E-24
 -3.9599999E-03    9.9999992E-25
 -3.9249999E-03    9.9999963E-25
 -3.8900001E-03    1.0000001E-24
 -3.8550000E-03    1.0000004E-24
 -3.8200000E-03    9.9999992E-25
 -3.7849999E-03    9.9999992E-25
 -3.7499999E-03    1.0000002E-24
 -3.7150001E-03    1.0000003E-24
 -3.6800001E-03    1.0000003E-24
 -3.6450000E-03    1.0000004E-24
 -3.6100000E-03    9.9999972E-25
 -3.5750000E-03    9.9999943E-25
 -3.5399999E-03    1.0000002E-24
 -3.5049999E-03    1.0000006E-24
 -3.4700001E-03    1.0000002E-24
 -3.4350001E-03    1.0000002E-24
 -3.4000000E-03    1.0000002E-24
 -3.3650000E-03    9.9999953E-25
 -3.3300000E-03    9.9999943E-25
 -3.2949999E-03    1.0000001E-24
 -3.2599999E-03    1.0000005E-24
 -3.2250001E-03    1.0000002E-24
 -3.1900001E-03    1.0000000E-24
 -3.1550000E-03    1.0000000E-24
 -3.1200000E-03    9.9999972E-25
 -3.0850000E-03    9.9999992E-25
 -3.0499999E-03    1.0000002E-24
 -3.0149999E-03    1.0000000E-24
 -2.9800001E-03    9.9999992E-25
 -2.9450001E-03    1.0000002E-24
 -2.9100000E-03    1.0000002E-24
 -2.8750000E-03    1.0000000E-24
 -2.8400000E-03    1.0000002E-24
 -2.8049999E-03    1.0000001E-24
 -2.7699999E-03    9.9999963E-25
 -2.7350001E-03    9.9999992E-25
 -2.7000001E-03    1.0000006E-24
 -2.6650000E-03    1.0000005E-24
 -2.6300000E-03    1.0000003E-24
 -2.5950000E-03    1.0000002E-24
 -2.5599999E-03    9.9999992E-25
 -2.5249999E-03    1.0000000E-24
 -2.4900001E-03    1.0000003E-24
 -2.4550001E-03    1.0000000E-24
 -2.4200000E-03    9.9999963E-25
 -2.3850000E-03    1.0000000E-24
 -2.3500000E-03    1.0000002E-24
 -2.3149999E-03    1.0000002E-24
 -2.2799999E-03    1.0000005E-24
 -2.2450001E-03    1.0000005E-24
 -2.2100001E-03    9.9999963E-25
 -2.1750000E-03    9.9999933E-25
 -2.1400000E-03    1.0000003E-24
 -2.1050000E-03    1.0000006E-24
 -2.0699999E-03    9.9999972E-25
 -2.0349999E-03    9.9999953E-25
 -2.0000001E-03    1.0000004E-24
 -1.9650001E-03    1.0000007E-24
 -1.9300000E-03    1.0000003E-24
 -1.8950000E-03    1.0000003E-24
 -1.8600000E-03    1.0000003E-24
 -1.8250000E-03    1.0000000E-24
 -1.7900000E-03    9.9999963E-25
 -1.7550000E-03    9.9999923E-25
 -1.7199999E-03    9.9999963E-25
 -1.6850000E-03    1.0000007E-24
 -1.6500000E-03    1.0000010E-24
 -1.6150000E-03    1.0000000E-24
 -1.5800000E-03    9.9999943E-25
 -1.5450000E-03    9.9999982E-25
 -1.5100000E-03    1.0000003E-24
 -1.4750001E-03    1.0000008E-24
 -1.4400000E-03    1.0000014E-24
 -1.4050000E-03    9.9999933E-25
 -1.3700000E-03    9.9999667E-25
 -1.3350000E-03    1.0000014E-24
 -1.3000000E-03    1.0000039E-24
 -1.2650000E-03    9.9999095E-25
 -1.2300001E-03    1.0000002E-24
 -1.1950000E-03    1.0000292E-24
 -1.1600000E-03    9.9997271E-25
 -1.1250000E-03    9.9993957E-25
 -1.0900000E-03    1.0001228E-24
 -1.0550000E-03    1.0000644E-24
 -1.0200000E-03    9.9963803E-25
 -9.8500005E-04    1.0001092E-24
 -9.5000002E-04    1.0007930E-24
 -9.1499998E-04    9.9917112E-25
 -8.8000001E-04    9.9879158E-25
 -8.4499997E-04    1.0027277E-24
 -8.1000000E-04    1.0006280E-24
 -7.7500002E-04    9.9366034E-25
 -7.3999999E-04    1.0035302E-24
 -7.0500001E-04    1.0107017E-24
 -6.6999998E-04    9.8392422E-25
 -6.3500000E-04    9.8992853E-25
 -6.0000003E-04    1.0429582E-24
 -5.6499999E-04    9.8848058E-25
 -5.3000002E-04    9.1439569E-25
 -4.9499999E-04    1.0861230E-24
 -4.6000001E-04    1.1274095E-24
 -4.2500001E-04    7.3778660E-25
 -3.9000000E-04    8.8807259E-25
 -3.5500000E-04    1.5884226E-24
 -3.1999999E-04    9.2166613E-25
 -2.8499999E-04   -6.7123324E-26
 -2.5000001E-04    1.6155168E-24
 -2.1499999E-04    2.5711026E-24
 -1.8000000E-04   -6.4044442E-25
 -1.4500000E-04   -7.3921316E-25
 -1.1000000E-04    4.0209073E-24
 -7.5000004E-05    1.9054781E-24
 -3.9999999E-05   -2.8655388E-24
 -4.9999999E-06    2.8443388E-24
  2.9999999E-05    2.7102626E-24
  6.5000000E-05   -6.3876986E-24
  9.9999997E-05    9.6948978E-24
  1.3499999E-04    1.7026799E-23
  1.7000000E-04   -3.6091488E-23
  2.0500000E-04   -2.5885508E-23
  2.3999999E-04    1.0110868E-22
  2.7500000E-04    3.8836938E-23
  3.1000000E-04   -2.2376369E-22
  3.4500001E-04   -4.6227483E-23
  3.8000001E-04    4.5475446E-22
  4.1499999E-04    6.0737386E-23
  4.4999999E-04   -8.5235792E-22
  4.8500000E-04   -9.9453644E-23
  5.2000000E-04    1.5253170E-21
  5.5499998E-04    2.4500462E-22
  5.9000001E-04   -2.6133764E-21
  6.2499999E-04   -6.6879789E-22
  6.6000002E-04    4.3279055E-21
  6.9500000E-04    1.7610281E-21
  7.3000003E-04   -6.9102289E-21
  7.6500000E-04   -4.2624322E-21
  7.9999998E-04    1.0604550E-20
  8.3500001E-04    9.5532018E-21
  8.6999999E-04   -1.5457018E-20
  9.0500002E-04   -1.9995943E-20
  9.4000000E-04    2.0961170E-20
  9.7499997E-04    3.9465753E-20
  1.0100000E-03   -2.5244654E-20
  1.0450000E-03   -7.3889776E-20
  1.0800000E-03    2.3658509E-20
  1.1150000E-03    1.3175490E-19
  1.1500000E-03   -6.2786753E-21
  1.1849999E-03   -2.2405986E-19
  1.2200000E-03   -4.5981061E-20
  1.2550000E-03    3.6305428E-19
  1.2900000E-03    1.6715993E-19
  1.3250000E-03   -5.5825101E-19
  1.3600000E-03   -4.1392891E-19
  1.3950000E-03    8.0761908E-19
  1.4299999E-03    8.7465902E-19
  1.4650000E-03   -1.0806164E-18
  1.5000000E-03   -1.6776150E-18
  1.5350000E-03    1.2890635E-18
  1.5700000E-03    2.9935811E-18
  1.6050000E-03   -1.2413002E-18
  1.6400000E-03   -5.0237106E-18
  1.6749999E-03    5.7654478E-19
  1.7100000E-03    7.9576504E-18
  1.7450000E-03    1.3196420E-18
  1.7800000E-03   -1.1879371E-17
  1.8150000E-03   -5.4083504E-18
  1.8500000E-03    1.6591236E-17
  1.8850000E-03    1.3071885E-17
  1.9200000E-03   -2.1322878E-17
  1.9550000E-03   -2.6116233E-17
  1.9900000E-03    2.4297532E-17
  2.0250001E-03    4.6611406E-17
  2.0600001E-03   -2.2152463E-17
  2.0949999E-03   -7.6435724E-17
  2.1299999E-03    9.2637322E-18
  2.1650000E-03    1.1634937E-16
  2.2000000E-03    2.2879171E-17
  2.2350000E-03   -1.6440478E-16
  2.2700001E-03   -8.5958703E-17
  2.3050001E-03    2.1353760E-16
  2.3399999E-03    1.9429215E-16
  2.3749999E-03   -2.4831875E-16
  2.4100000E-03   -3.6277193E-16
  2.4450000E-03    2.4113911E-16
  2.4800000E-03    6.0240549E-16
  2.5150001E-03   -1.4859210E-16
  2.5500001E-03   -9.1254173E-16
  2.5849999E-03   -9.0470676E-17
  2.6199999E-03    1.2691545E-15
  2.6550000E-03    5.5287286E-16
  2.6900000E-03   -1.6093231E-15
  2.7250000E-03   -1.3218470E-15
  2.7600001E-03    1.8135113E-15
  2.7950001E-03    2.4668708E-15
  2.8299999E-03   -1.6894676E-15
  2.8649999E-03   -4.0092005E-15
  2.9000000E-03    9.6452838E-16
  2.9350000E-03    5.8714490E-15
  2.9700000E-03    7.0366854E-16
  3.0050001E-03   -7.8135071E-15
  3.0400001E-03   -3.6854802E-15
  3.0749999E-03    9.3636799E-15
  3.1099999E-03    8.2937426E-15
  3.1450000E-03   -9.7627688E-15
  3.1800000E-03   -1.4645427E-14
  3.2150000E-03    7.9487232E-15
  3.2500001E-03    2.2471118E-14
  3.2850001E-03   -2.6180327E-15
  3.3199999E-03   -3.0889496E-14
  3.3549999E-03   -7.5962262E-15
  3.3900000E-03    3.8187474E-14
  3.4250000E-03    2.3795393E-14
  3.4600000E-03   -4.1675810E-14
  3.4950001E-03   -4.6323154E-14
  3.5300001E-03    3.7716985E-14
  3.5649999E-03    7.4140536E-14
  3.5999999E-03   -2.2036162E-14
  3.6350000E-03   -1.0415998E-13
  3.6700000E-03   -9.5879344E-15
  3.7050000E-03    1.3070006E-13
  3.7400001E-03    6.0205503E-14
  3.7750001E-03   -1.4528500E-13
  3.8099999E-03   -1.3019541E-13
  3.8449999E-03    1.3705017E-13
  3.8800000E-03    2.1555454E-13
  3.9149998E-03   -9.4005912E-14
  3.9499998E-03   -3.0631411E-13
  3.9849998E-03    5.3209356E-15
  4.0199999E-03    3.8558851E-13
  4.0549999E-03    1.3542139E-13
  4.0899999E-03   -4.2986526E-13
  4.1250000E-03   -3.2635949E-13
  4.1600000E-03    4.1108997E-13
  4.1950000E-03    5.5359542E-13
  4.2300001E-03   -3.0085063E-13
  4.2650001E-03   -7.8851200E-13
  4.3000001E-03    7.6578880E-14
  4.3350002E-03    9.8726008E-13
  4.3700002E-03    2.7079185E-13
  4.4049998E-03   -1.0934842E-12
  4.4399998E-03   -7.2884618E-13
  4.4749998E-03    1.0451136E-12
  4.5099999E-03    1.2571983E-12
  4.5449999E-03   -7.8533865E-13
  4.5799999E-03   -1.7848003E-12
  4.6150000E-03    2.7666430E-13
  4.6500000E-03    2.2131502E-12
  4.6850001E-03    4.8438890E-13
  4.7200001E-03   -2.4263703E-12
  4.7550001E-03   -1.4549447E-12
  4.7900002E-03    2.3077777E-12
  4.8250002E-03    2.5386097E-12
  4.8600002E-03   -1.7616669E-12
  4.8949998E-03   -3.5861583E-12
  4.9299998E-03    7.3813183E-13
  4.9649999E-03    4.4067792E-12
  4.9999999E-03    7.4310691E-13
  5.0349999E-03   -4.7914932E-12
  5.0700000E-03   -2.5761095E-12
  5.1050000E-03    4.5467762E-12
  5.1400000E-03    4.5652575E-12
  5.1750001E-03   -3.5324764E-12
  5.2100001E-03   -6.4371169E-12
  5.2450001E-03    1.6975724E-12
  5.2800002E-03    7.8662727E-12
  5.3150002E-03    8.9024128E-13
  5.3500002E-03   -8.5140428E-12
  5.3849998E-03   -4.0246708E-12
  5.4199998E-03    8.0802223E-12
  5.4549999E-03    7.3575018E-12
  5.4899999E-03   -6.3647885E-12
  5.5249999E-03   -1.0420706E-11
  5.5600000E-03    3.3291555E-12
  5.5950000E-03    1.2678118E-11
  5.6300000E-03    8.5795802E-13
  5.6650001E-03   -1.3601616E-11
  5.7000001E-03   -5.8019362E-12
  5.7350001E-03    1.2760638E-11
  5.7700002E-03    1.0895521E-11
  5.8050002E-03   -9.9152769E-12
  5.8400002E-03   -1.5365115E-11
  5.8749998E-03    5.1079549E-12
  5.9099998E-03    1.8358370E-11
  5.9449999E-03    1.2571425E-12
  5.9799999E-03   -1.9088519E-11
  6.0149999E-03   -8.3826409E-12
  6.0500000E-03    1.7031068E-11
  6.0850000E-03    1.5147562E-11
  6.1200000E-03   -1.2116599E-11
  6.1550001E-03   -2.0295061E-11
  6.1900001E-03    4.8379781E-12
  6.2250001E-03    2.2685354E-11
  6.2600002E-03    3.7610219E-12
  6.2950002E-03   -2.1546541E-11
  6.3299998E-03   -1.2191158E-11
  6.3649998E-03    1.6712376E-11
  6.3999998E-03    1.8726928E-11
  6.4349999E-03   -8.8321668E-12
  6.4699999E-03   -2.1779129E-11
  6.5049999E-03   -5.7160467E-13
  6.5400000E-03    2.0391425E-11
  6.5750000E-03    9.3474785E-12
  6.6100000E-03   -1.4650505E-11
  6.6450001E-03   -1.5230338E-11
  6.6800001E-03    5.8173839E-12
  6.7150001E-03    1.6438826E-11
  6.7500002E-03    3.8360140E-12
  6.7850002E-03   -1.2219089E-11
  6.8199998E-03   -1.1452046E-11
  6.8549998E-03    3.2486171E-12
  6.8899998E-03    1.4279108E-11
  6.9249999E-03    8.2851521E-12
  6.9599999E-03   -1.0481687E-11
  6.9949999E-03   -1.9056290E-11
  7.0300000E-03   -2.2688263E-13
  7.0650000E-03    2.5274635E-11
  7.1000000E-03    1.6225847E-11
  7.1350001E-03   -2.3543363E-11
  7.1700001E-03   -3.3894654E-11
  7.2050001E-03    1.2003313E-11
  7.2400002E-03    4.8161971E-11
  7.2750002E-03    8.5572417E-12
  7.3099998E-03   -5.4005109E-11
  7.3449998E-03   -3.4582504E-11
  7.3799998E-03    4.8112035E-11
  7.4149999E-03    6.0847834E-11
  7.4499999E-03   -2.9538295E-11
  7.4850000E-03   -8.1616748E-11
  7.5200000E-03   -3.3241178E-13
  7.5550000E-03    9.1242645E-11
  7.5900001E-03    3.7438375E-11
  7.6250001E-03   -8.5314693E-11
  7.6600001E-03   -7.4973687E-11
  7.6950002E-03    6.2664880E-11
  7.7300002E-03    1.0516411E-10
  7.7650002E-03   -2.6194926E-11
  7.7999998E-03   -1.2192700E-10
  7.8349998E-03   -1.8609973E-11
  7.8699999E-03    1.2187830E-10
  7.9049999E-03    6.5439230E-11
  7.9399999E-03   -1.0380408E-10
  7.9750000E-03   -1.0753190E-10
  8.0100000E-03    6.8718482E-11
  8.0450000E-03    1.3799469E-10
  8.0800001E-03   -2.0490566E-11
  8.1150001E-03   -1.5114017E-10
  8.1500001E-03   -3.4446588E-11
  8.1850002E-03    1.4380344E-10
  8.2200002E-03    8.8243308E-11
  8.2550002E-03   -1.1594870E-10
  8.2900003E-03   -1.3300233E-10
  8.3250003E-03    7.0577891E-11
  8.3600003E-03    1.6200581E-10
  8.3950004E-03   -1.2958414E-11
  8.4300004E-03   -1.7005800E-10
  8.4650004E-03   -4.9602097E-11
  8.5000005E-03    1.5393987E-10
  8.5349996E-03    1.0741844E-10
  8.5699996E-03   -1.1446113E-10
  8.6049996E-03   -1.5012899E-10
  8.6399997E-03    5.7847449E-11
  8.6749997E-03    1.7033351E-10
  8.7099997E-03    6.1467892E-12
  8.7449998E-03   -1.6551277E-10
  8.7799998E-03   -6.7487835E-11
  8.8149998E-03    1.3673436E-10
  8.8499999E-03    1.1615574E-10
  8.8849999E-03   -8.9276316E-11
  8.9199999E-03   -1.4330306E-10
  8.9550000E-03    3.4745300E-11
  8.9900000E-03    1.4867720E-10
  9.0250000E-03    1.8348460E-11
  9.0600001E-03   -1.3470805E-10
  9.0950001E-03   -6.4697331E-11
  9.1300001E-03    1.0130657E-10
  9.1650002E-03    9.2841936E-11
  9.2000002E-03   -5.9132435E-11
  9.2350002E-03   -9.9911912E-11
  9.2700003E-03    1.7860885E-11
  9.3050003E-03    8.2860101E-11
  9.3400003E-03   -2.5315360E-12
  9.3750004E-03   -7.9963633E-11
  9.4100004E-03   -2.6176490E-11
  9.4450004E-03    5.2473723E-11
  9.4799995E-03    2.3743483E-11
  9.5149996E-03   -5.6172060E-11
  9.5499996E-03   -6.1965155E-11
  9.5849996E-03   -6.9210705E-12
  9.6199997E-03    1.0016611E-12
  9.6549997E-03   -5.7978129E-11
  9.6899997E-03   -9.3545401E-11
  9.7249998E-03   -5.3498303E-11
  9.7599998E-03   -1.1574476E-11
  9.7949998E-03   -6.8194742E-11
  9.8299999E-03   -1.8934476E-10
  9.8649999E-03   -2.2331918E-10
  9.8999999E-03   -1.2917671E-10
  9.9350000E-03   -8.9867669E-11
  9.9700000E-03   -2.5353658E-10
  1.0005000E-02   -4.5253479E-10
  1.0040000E-02   -4.2694168E-10
  1.0075000E-02   -2.8357103E-10
  1.0110000E-02   -3.8897655E-10
  1.0145000E-02   -7.6144607E-10
  1.0180000E-02   -9.7955888E-10
  1.0215000E-02   -8.6106022E-10
  1.0250000E-02   -8.0825047E-10
  1.0285000E-02   -1.1827711E-09
  1.0320000E-02   -1.7142938E-09
  1.0355000E-02   -1.9359663E-09
  1.0390000E-02   -1.9344937E-09
  1.0425000E-02   -2.2032900E-09
  1.0460000E-02   -2.8828160E-09
  1.0495000E-02   -3.5949630E-09
  1.0530000E-02   -4.0409223E-09
  1.0565000E-02   -4.4151749E-09
  1.0600000E-02   -5.1195852E-09
  1.0635000E-02   -6.2505303E-09
  1.0670000E-02   -7.4961841E-09
  1.0705000E-02   -8.5485752E-09
  1.0740000E-02   -9.5611083E-09
  1.0775000E-02   -1.1025994E-08
  1.0810000E-02   -1.3107748E-08
  1.0845000E-02   -1.5367423E-08
  1.0880000E-02   -1.7431928E-08
  1.0915000E-02   -1.9671820E-08
  1.0950000E-02   -2.2740824E-08
  1.0985000E-02   -2.6598151E-08
  1.1020000E-02   -3.0595181E-08
  1.1055000E-02   -3.4565126E-08
  1.1090000E-02   -3.9189064E-08
  1.1125000E-02   -4.5043063E-08
  1.1160000E-02   -5.1836224E-08
  1.1195000E-02   -5.8997326E-08
  1.1230000E-02   -6.6654010E-08
  1.1265000E-02   -7.5553487E-08
  1.1300000E-02   -8.6114319E-08
  1.1335000E-02   -9.7986963E-08
  1.1370000E-02   -1.1073001E-07
  1.1405000E-02   -1.2466491E-07
  1.1440000E-02   -1.4067415E-07
  1.1475000E-02   -1.5915444E-07
  1.1510000E-02   -1.7964989E-07
  1.1545000E-02   -2.0181042E-07
  1.1580000E-02   -2.2628099E-07
  1.1615000E-02   -2.5408644E-07
  1.1650000E-02   -2.8540313E-07
  1.1685000E-02   -3.1970481E-07
  1.1720000E-02   -3.5710571E-07
  1.1755000E-02   -3.9869295E-07
  1.1790000E-02   -4.4529915E-07
  1.1825000E-02   -4.9678800E-07
  1.1860000E-02   -5.5298403E-07
  1.1895000E-02   -6.1461191E-07
  1.1930000E-02   -6.8277149E-07
  1.1965000E-02   -7.5796953E-07
  1.2000000E-02   -8.4026146E-07
  1.2035000E-02   -9.3009305E-07
  1.2070000E-02   -1.0284538E-06
  1.2105000E-02   -1.1362815E-06
  1.2140000E-02   -1.2541453E-06
  1.2175000E-02   -1.3825219E-06
  1.2210000E-02   -1.5221758E-06
  1.2245000E-02   -1.6742267E-06
  1.2280000E-02   -1.8397782E-06
  1.2315000E-02   -2.0195293E-06
  1.2350000E-02   -2.2141135E-06
  1.2385000E-02   -2.4247533E-06
  1.2420000E-02   -2.6530054E-06
  1.2455000E-02   -2.8999200E-06
  1.2490000E-02   -3.1661291E-06
  1.2525000E-02   -3.4528102E-06
  1.2560000E-02   -3.7618563E-06
  1.2595000E-02   -4.0948044E-06
  1.2630000E-02   -4.4523258E-06
  1.2665000E-02   -4.8354209E-06
  1.2700000E-02   -5.2462356E-06
  1.2735000E-02   -5.6867971E-06
  1.2770000E-02   -6.1580622E-06
  1.2805000E-02   -6.6611028E-06
  1.2840000E-02   -7.1979184E-06
  1.2875000E-02   -7.7705163E-06
  1.2910000E-02   -8.3803234E-06
  1.2945000E-02   -9.0286658E-06
  1.2980000E-02   -9.7171851E-06
  1.3015000E-02   -1.0447854E-05
  1.3050000E-02   -1.1222533E-05
  1.3085000E-02   -1.2042638E-05
  1.3120000E-02   -1.2909722E-05
  1.3155000E-02   -1.3825672E-05
  1.3190000E-02   -1.4792073E-05
  1.3225000E-02   -1.5810419E-05
  1.3260000E-02   -1.6882408E-05
  1.3295000E-02   -1.8009330E-05
  1.3330000E-02   -1.9192419E-05
  1.3365000E-02   -2.0433481E-05
  1.3400000E-02   -2.1733838E-05
  1.3435000E-02   -2.3094177E-05
  1.3470000E-02   -2.4515777E-05
  1.3505000E-02   -2.5999872E-05
  1.3540000E-02   -2.7546979E-05
  1.3575000E-02   -2.9157871E-05
  1.3610000E-02   -3.0833184E-05
  1.3645000E-02   -3.2572847E-05
  1.3680000E-02   -3.4377539E-05
  1.3715000E-02   -3.6247853E-05
  1.3750000E-02   -3.8182603E-05
  1.3785000E-02   -4.0180934E-05
  1.3820000E-02   -4.2243526E-05
  1.3855000E-02   -4.4369841E-05
  1.3890000E-02   -4.6557823E-05
  1.3925000E-02   -4.8805799E-05
  1.3960000E-02   -5.1112587E-05
  1.3995000E-02   -5.3477266E-05
  1.4030000E-02   -5.5897835E-05
  1.4065000E-02   -5.8370173E-05
  1.4100000E-02   -6.0891540E-05
  1.4135000E-02   -6.3461368E-05
  1.4170000E-02   -6.6075831E-05
  1.4205000E-02   -6.8728965E-05
  1.4240000E-02   -7.1418312E-05
  1.4275000E-02   -7.4141404E-05
  1.4310000E-02   -7.6892065E-05
  1.4345000E-02   -7.9664977E-05
  1.4380000E-02   -8.2456587E-05
  1.4415000E-02   -8.5261527E-05
  1.4450000E-02   -8.8073488E-05
  1.4485000E-02   -9.0886460E-05
  1.4520000E-02   -9.3694471E-05
  1.4555000E-02   -9.6492455E-05
  1.4590000E-02   -9.9273544E-05
  1.4625000E-02   -1.0202871E-04
  1.4660000E-02   -1.0475229E-04
  1.4695000E-02   -1.0743945E-04
  1.4730000E-02   -1.1008044E-04
  1.4765000E-02   -1.1266690E-04
  1.4800000E-02   -1.1519426E-04
  1.4835000E-02   -1.1765411E-04
  1.4870000E-02   -1.2003651E-04
  1.4905000E-02   -1.2233574E-04
  1.4940000E-02   -1.2454504E-04
  1.4975000E-02   -1.2665513E-04
  1.5010000E-02   -1.2865849E-04
  1.5045000E-02   -1.3054798E-04
  1.5080000E-02   -1.3231643E-04
  1.5115000E-02   -1.3395809E-04
  1.5150000E-02   -1.3546465E-04
  1.5185000E-02   -1.3682761E-04
  1.5220000E-02   -1.3804340E-04
  1.5255000E-02   -1.3910660E-04
  1.5290000E-02   -1.4000820E-04
  1.5325000E-02   -1.4074385E-04
  1.5360000E-02   -1.4131052E-04
  1.5395000E-02   -1.4170170E-04
  1.5430000E-02   -1.4191357E-04
  1.5465000E-02   -1.4194405E-04
  1.5500000E-02   -1.4178849E-04
  1.5535000E-02   -1.4144465E-04
  1.5570000E-02   -1.4091194E-04
  1.5605000E-02   -1.4018755E-04
  1.5640000E-02   -1.3927149E-04
  1.5675001E-02   -1.3816511E-04
  1.5710000E-02   -1.3686610E-04
  1.5745001E-02   -1.3537613E-04
  1.5780000E-02   -1.3370071E-04
  1.5814999E-02   -1.3184022E-04
  1.5850000E-02   -1.2979597E-04
  1.5884999E-02   -1.2757488E-04
  1.5920000E-02   -1.2518153E-04
  1.5954999E-02   -1.2261978E-04
  1.5990000E-02   -1.1989675E-04
  1.6024999E-02   -1.1701811E-04
  1.6060000E-02   -1.1399113E-04
  1.6094999E-02   -1.1082643E-04
  1.6130000E-02   -1.0752986E-04
  1.6164999E-02   -1.0410797E-04
  1.6200000E-02   -1.0057463E-04
  1.6235000E-02   -9.6940166E-05
  1.6270000E-02   -9.3211267E-05
  1.6305000E-02   -8.9400564E-05
  1.6340001E-02   -8.5520202E-05
  1.6375000E-02   -8.1579259E-05
  1.6410001E-02   -7.7590987E-05
  1.6445000E-02   -7.3567840E-05
  1.6480001E-02   -6.9519716E-05
  1.6515000E-02   -6.5460648E-05
  1.6550001E-02   -6.1402796E-05
  1.6585000E-02   -5.7355479E-05
  1.6620001E-02   -5.3333744E-05
  1.6655000E-02   -4.9350638E-05
  1.6690001E-02   -4.5413133E-05
  1.6725000E-02   -4.1534564E-05
  1.6759999E-02   -3.7729940E-05
  1.6795000E-02   -3.4006061E-05
  1.6829999E-02   -3.0371884E-05
  1.6865000E-02   -2.6840327E-05
  1.6899999E-02   -2.3419861E-05
  1.6935000E-02   -2.0119383E-05
  1.6969999E-02   -1.6948137E-05
  1.7005000E-02   -1.3910625E-05
  1.7039999E-02   -1.1014595E-05
  1.7075000E-02   -8.2697279E-06
  1.7109999E-02   -5.6783042E-06
  1.7145000E-02   -3.2436360E-06
  1.7180000E-02   -9.7284976E-07
  1.7215000E-02    1.1330903E-06
  1.7250000E-02    3.0731212E-06
  1.7285001E-02    4.8422544E-06
  1.7320000E-02    6.4423089E-06
  1.7355001E-02    7.8761650E-06
  1.7390000E-02    9.1403072E-06
  1.7425001E-02    1.0236565E-05
  1.7460000E-02    1.1171723E-05
  1.7495001E-02    1.1947587E-05
  1.7530000E-02    1.2567037E-05
  1.7565001E-02    1.3036140E-05
  1.7600000E-02    1.3359085E-05
  1.7635001E-02    1.3543257E-05
  1.7670000E-02    1.3597348E-05
  1.7704999E-02    1.3524995E-05
  1.7740000E-02    1.3333775E-05
  1.7774999E-02    1.3036183E-05
  1.7810000E-02    1.2638592E-05
  1.7844999E-02    1.2147303E-05
  1.7880000E-02    1.1574887E-05
  1.7914999E-02    1.0930618E-05
  1.7950000E-02    1.0221539E-05
  1.7984999E-02    9.4591924E-06
  1.8020000E-02    8.6530963E-06
  1.8054999E-02    7.8103212E-06
  1.8090000E-02    6.9423654E-06
  1.8124999E-02    6.0601510E-06
  1.8160000E-02    5.1704101E-06
  1.8195000E-02    4.2813931E-06
  1.8230001E-02    3.4022992E-06
  1.8265000E-02    2.5408274E-06
  1.8300001E-02    1.7057796E-06
  1.8335000E-02    9.0471281E-07
  1.8370001E-02    1.4170992E-07
  1.8405000E-02   -5.7711111E-07
  1.8440001E-02   -1.2434904E-06
  1.8475000E-02   -1.8532296E-06
  1.8510001E-02   -2.4040096E-06
  1.8545000E-02   -2.8908437E-06
  1.8580001E-02   -3.3100293E-06
  1.8615000E-02   -3.6608444E-06
  1.8650001E-02   -3.9412112E-06
  1.8685000E-02   -4.1490234E-06
  1.8719999E-02   -4.2848324E-06
  1.8755000E-02   -4.3485375E-06
  1.8789999E-02   -4.3403029E-06
  1.8825000E-02   -4.2635388E-06
  1.8859999E-02   -4.1199264E-06
  1.8895000E-02   -3.9093429E-06
  1.8929999E-02   -3.6365557E-06
  1.8965000E-02   -3.3070385E-06
  1.8999999E-02   -2.9222958E-06
  1.9035000E-02   -2.4863034E-06
  1.9069999E-02   -2.0053517E-06
  1.9105000E-02   -1.4835275E-06
  1.9140000E-02   -9.2668961E-07
  1.9175000E-02   -3.4113202E-07
  1.9210000E-02    2.7044263E-07
  1.9245001E-02    9.0232237E-07
  1.9280000E-02    1.5459258E-06
  1.9315001E-02    2.1968926E-06
  1.9350000E-02    2.8504721E-06
  1.9385001E-02    3.5001297E-06
  1.9420000E-02    4.1429007E-06
  1.9455001E-02    4.7731128E-06
  1.9490000E-02    5.3818717E-06
  1.9525001E-02    5.9674944E-06
  1.9560000E-02    6.5290901E-06
  1.9595001E-02    7.0589244E-06
  1.9630000E-02    7.5527341E-06
  1.9664999E-02    8.0102254E-06
  1.9700000E-02    8.4274616E-06
  1.9734999E-02    8.8023189E-06
  1.9770000E-02    9.1347974E-06
  1.9804999E-02    9.4212191E-06
  1.9840000E-02    9.6602234E-06
  1.9874999E-02    9.8543233E-06
  1.9910000E-02    1.0003549E-05
  1.9944999E-02    1.0107706E-05
  1.9980000E-02    1.0166857E-05
  2.0014999E-02    1.0180107E-05
  2.0050000E-02    1.0152359E-05
  2.0085000E-02    1.0089649E-05
  2.0120000E-02    9.9896206E-06
  2.0155000E-02    9.8522205E-06
  2.0190001E-02    9.6853573E-06
  2.0225000E-02    9.4926345E-06
  2.0260001E-02    9.2744049E-06
  2.0295000E-02    9.0357516E-06
  2.0330001E-02    8.7815733E-06
  2.0365000E-02    8.5149986E-06
  2.0400001E-02    8.2399065E-06
  2.0435000E-02    7.9584688E-06
  2.0470001E-02    7.6743063E-06
  2.0505000E-02    7.3936881E-06
  2.0540001E-02    7.1191062E-06
  2.0575000E-02    6.8529098E-06
  2.0609999E-02    6.6006332E-06
  2.0645000E-02    6.3628440E-06
  2.0679999E-02    6.1394458E-06
  2.0715000E-02    5.9382392E-06
  2.0749999E-02    5.7636494E-06
  2.0785000E-02    5.6115277E-06
  2.0819999E-02    5.4818183E-06
  2.0855000E-02    5.3798626E-06
  2.0889999E-02    5.3080266E-06
  2.0925000E-02    5.2650853E-06
  2.0959999E-02    5.2485016E-06
  2.0995000E-02    5.2584041E-06
  2.1029999E-02    5.2986247E-06
  2.1065000E-02    5.3676426E-06
  2.1100000E-02    5.4589236E-06
  2.1135001E-02    5.5731175E-06
  2.1170000E-02    5.7139805E-06
  2.1205001E-02    5.8771648E-06
  2.1240000E-02    6.0570951E-06
  2.1275001E-02    6.2539029E-06
  2.1310000E-02    6.4667020E-06
  2.1345001E-02    6.6915904E-06
  2.1380000E-02    6.9263710E-06
  2.1415001E-02    7.1694135E-06
  2.1450000E-02    7.4173408E-06
  2.1485001E-02    7.6674305E-06
  2.1520000E-02    7.9187121E-06
  2.1555001E-02    8.1696453E-06
  2.1590000E-02    8.4169787E-06
  2.1624999E-02    8.6570035E-06
  2.1660000E-02    8.8878751E-06
  2.1694999E-02    9.1109196E-06
  2.1730000E-02    9.3264807E-06
  2.1764999E-02    9.5294090E-06
  2.1800000E-02    9.7160628E-06
  2.1834999E-02    9.8907303E-06
  2.1870000E-02    1.0055490E-05
  2.1904999E-02    1.0204907E-05
  2.1940000E-02    1.0337736E-05
  2.1974999E-02    1.0457990E-05
  2.2010000E-02    1.0565801E-05
  2.2045000E-02    1.0661328E-05
  2.2080000E-02    1.0746389E-05
  2.2115000E-02    1.0818884E-05
  2.2150001E-02    1.0880040E-05
  2.2185000E-02    1.0936357E-05
  2.2220001E-02    1.0987496E-05
  2.2255000E-02    1.1030994E-05
  2.2290001E-02    1.1070881E-05
  2.2325000E-02    1.1108710E-05
  2.2360001E-02    1.1144693E-05
  2.2395000E-02    1.1183406E-05
  2.2430001E-02    1.1223256E-05
  2.2465000E-02    1.1261650E-05
  2.2500001E-02    1.1306873E-05
  2.2535000E-02    1.1360369E-05
  2.2569999E-02    1.1413142E-05
  2.2605000E-02    1.1468542E-05
  2.2639999E-02    1.1533164E-05
  2.2675000E-02    1.1600813E-05
  2.2709999E-02    1.1669511E-05
  2.2745000E-02    1.1742714E-05
  2.2779999E-02    1.1815199E-05
  2.2815000E-02    1.1883800E-05
  2.2849999E-02    1.1950492E-05
  2.2885000E-02    1.2010090E-05
  2.2919999E-02    1.2059261E-05
  2.2955000E-02    1.2098636E-05
  2.2990000E-02    1.2120166E-05
  2.3025000E-02    1.2117287E-05
  2.3060000E-02    1.2090959E-05
  2.3095001E-02    1.2034177E-05
  2.3130000E-02    1.1940375E-05
  2.3165001E-02    1.1811867E-05
  2.3200000E-02    1.1639869E-05
  2.3235001E-02    1.1410264E-05
  2.3270000E-02    1.1124901E-05
  2.3305001E-02    1.0785064E-05
  2.3340000E-02    1.0379464E-05
  2.3375001E-02    9.9014469E-06
  2.3410000E-02    9.3473900E-06
  2.3445001E-02    8.7116641E-06
  2.3480000E-02    7.9949959E-06
  2.3514999E-02    7.1942673E-06
  2.3550000E-02    6.2993386E-06
  2.3584999E-02    5.3107451E-06
  2.3620000E-02    4.2319139E-06
  2.3654999E-02    3.0561348E-06
  2.3690000E-02    1.7816025E-06
  2.3724999E-02    4.1214491E-07
  2.3760000E-02   -1.0543482E-06
  2.3794999E-02   -2.6149351E-06
  2.3830000E-02   -4.2615256E-06
  2.3864999E-02   -5.9956233E-06
  2.3900000E-02   -7.8151115E-06
  2.3934999E-02   -9.7088969E-06
  2.3970000E-02   -1.1673031E-05
  2.4005000E-02   -1.3702090E-05
  2.4040001E-02   -1.5781152E-05
  2.4075000E-02   -1.7902596E-05
  2.4110001E-02   -2.0063299E-05
  2.4145000E-02   -2.2249702E-05
  2.4180001E-02   -2.4446055E-05
  2.4215000E-02   -2.6639766E-05
  2.4250001E-02   -2.8818971E-05
  2.4285000E-02   -3.0973053E-05
  2.4320001E-02   -3.3085853E-05
  2.4355000E-02   -3.5139456E-05
  2.4390001E-02   -3.7125446E-05
  2.4425000E-02   -3.9029415E-05
  2.4460001E-02   -4.0826788E-05
  2.4495000E-02   -4.2505209E-05
  2.4529999E-02   -4.4057906E-05
  2.4565000E-02   -4.5466750E-05
  2.4599999E-02   -4.6714737E-05
  2.4635000E-02   -4.7789577E-05
  2.4669999E-02   -4.8677612E-05
  2.4705000E-02   -4.9369650E-05
  2.4739999E-02   -4.9854378E-05
  2.4775000E-02   -5.0115304E-05
  2.4809999E-02   -5.0148774E-05
  2.4845000E-02   -4.9952469E-05
  2.4879999E-02   -4.9509323E-05
  2.4915000E-02   -4.8811449E-05
  2.4950000E-02   -4.7866459E-05
  2.4985000E-02   -4.6670120E-05
  2.5020000E-02   -4.5213834E-05
  2.5055001E-02   -4.3500546E-05
  2.5090000E-02   -4.1535779E-05
  2.5125001E-02   -3.9323400E-05
  2.5160000E-02   -3.6869118E-05
  2.5195001E-02   -3.4178011E-05
  2.5230000E-02   -3.1255851E-05
  2.5265001E-02   -2.8112087E-05
  2.5300000E-02   -2.4762096E-05
  2.5335001E-02   -2.1224589E-05
  2.5370000E-02   -1.7506476E-05
  2.5405001E-02   -1.3612601E-05
  2.5440000E-02   -9.5692212E-06
  2.5474999E-02   -5.4007510E-06
  2.5510000E-02   -1.1145077E-06
  2.5544999E-02    3.2708103E-06
  2.5580000E-02    7.7307068E-06
  2.5614999E-02    1.2254836E-05
  2.5650000E-02    1.6822280E-05
  2.5684999E-02    2.1400840E-05
  2.5720000E-02    2.5977344E-05
  2.5754999E-02    3.0542971E-05
  2.5790000E-02    3.5071698E-05
  2.5824999E-02    3.9540064E-05
  2.5860000E-02    4.3935073E-05
  2.5895000E-02    4.8240367E-05
  2.5930000E-02    5.2438107E-05
  2.5965000E-02    5.6510711E-05
  2.6000001E-02    6.0441394E-05
  2.6035000E-02    6.4222724E-05
  2.6070001E-02    6.7846078E-05
  2.6105000E-02    7.1289745E-05
  2.6140001E-02    7.4543692E-05
  2.6175000E-02    7.7610399E-05
  2.6210001E-02    8.0478349E-05
  2.6245000E-02    8.3135797E-05
  2.6280001E-02    8.5584419E-05
  2.6315000E-02    8.7819848E-05
  2.6350001E-02    8.9833768E-05
  2.6385000E-02    9.1627837E-05
  2.6419999E-02    9.3202980E-05
  2.6455000E-02    9.4560513E-05
  2.6489999E-02    9.5706768E-05
  2.6525000E-02    9.6640419E-05
  2.6559999E-02    9.7361182E-05
  2.6595000E-02    9.7881508E-05
  2.6629999E-02    9.8207529E-05
  2.6665000E-02    9.8336161E-05
  2.6699999E-02    9.8275064E-05
  2.6735000E-02    9.8038741E-05
  2.6769999E-02    9.7634831E-05
  2.6805000E-02    9.7064942E-05
  2.6839999E-02    9.6335090E-05
  2.6875000E-02    9.5460979E-05
  2.6910000E-02    9.4452625E-05
  2.6945001E-02    9.3306342E-05
  2.6980000E-02    9.2028407E-05