 -4.8000002E-03    1.0000000E-24
 -4.7650002E-03    1.0000002E-24
 -4.7300002E-03    1.0000002E-24
 -4.6950001E-03    1.0000000E-24
 -4.6600001E-03    1.0000001E-24
 -4.6250001E-03    1.0000004E-24
 -4.5900000E-03    1.0000001E-24
 -4.5550000E-03    9.9999972E-25
 -4.5200000E-03    1.0000004E-24
 -4.4849999E-03    1.0000004E-24
 -4.4499999E-03    9.9999943E-25
 -4.4149999E-03    1.0000001E-24
 -4.3799998E-03    1.0000010E-24
 -4.3449998E-03    9.9999982E-25
 -4.3100002E-03    9.9999943E-25
 -4.2750002E-03    1.0000008E-24
 -4.2400002E-03    1.0000003E-24
 -4.2050001E-03    9.9999903E-25
 -4.1700001E-03    1.0000007E-24
 -4.1350001E-03    1.0000011E-24
 -4.1000000E-03    9.9999923E-25
 -4.0650000E-03    9.9999953E-25
 -4.0300000E-03    1.0000005E-24
 -3.9949999E-03    9.9999972E-25
 -3.9599999E-03    9.9999982E-25
 -3.9249999E-03    1.0000008E-24
 -3.8900001E-03    1.0000002E-24
 -3.8550000E-03    9.9999903E-25
 -3.8200000E-03    1.0000000E-24
 -3.7849999E-03    1.0000006E-24
 -3.7499999E-03    1.0000003E-24
 -3.7150001E-03    1.0000005E-24
 -3.6800001E-03    1.0000004E-24
 -3.6450000E-03    9.9999972E-25
 -3.6100000E-03    9.9999982E-25
 -3.5750000E-03    1.0000002E-24
 -3.5399999E-03    9.9999943E-25
 -3.5049999E-03    9.9999963E-25
 -3.4700001E-03    1.0000006E-24
 -3.4350001E-03    1.0000004E-24
 -3.4000000E-03    9.9999953E-25
 -3.3650000E-03    1.0000004E-24
 -3.3300000E-03    1.0000013E-24
 -3.2949999E-03    9.9999992E-25
 -3.2599999E-03    9.9999893E-25
 -3.2250001E-03    1.0000002E-24
 -3.1900001E-03    1.0000005E-24
 -3.1550000E-03    9.9999953E-25
 -3.1200000E-03    1.0000000E-24
 -3.0850000E-03    1.0000006E-24
 -3.0499999E-03    9.9999982E-25
 -3.0149999E-03    9.9999972E-25
 -2.9800001E-03    1.0000007E-24
 -2.9450001E-03    1.0000007E-24
 -2.9100000E-03    9.9999972E-25
 -2.8750000E-03    9.9999953E-25
 -2.8400000E-03    1.0000006E-24
 -2.8049999E-03    1.0000009E-24
 -2.7699999E-03    9.9999972E-25
 -2.7350001E-03    9.9999903E-25
 -2.7000001E-03    1.0000000E-24
 -2.6650000E-03    1.0000003E-24
 -2.6300000E-03    9.9999972E-25
 -2.5950000E-03    1.0000002E-24
 -2.5599999E-03    1.0000009E-24
 -2.5249999E-03    1.0000002E-24
 -2.4900001E-03    9.9999992E-25
 -2.4550001E-03    1.0000000E-24
 -2.4200000E-03    9.9999953E-25
 -2.3850000E-03    9.9999982E-25
 -2.3500000E-03    1.0000013E-24
 -2.3149999E-03    1.0000005E-24
 -2.2799999E-03    9.9999824E-25
 -2.2450001E-03    9.9999933E-25
 -2.2100001E-03    1.0000018E-24
 -2.1750000E-03    1.0000002E-24
 -2.1400000E-03    9.9999834E-25
 -2.1050000E-03    1.0000004E-24
 -2.0699999E-03    1.0000025E-24
 -2.0349999E-03    1.0000003E-24
 -2.0000001E-03    9.9999815E-25
 -1.9650001E-03    9.9999972E-25
 -1.9300000E-03    1.0000008E-24
 -1.8950000E-03    9.9999943E-25
 -1.8600000E-03    9.9999893E-25
 -1.8250000E-03    1.0000004E-24
 -1.7900000E-03    1.0000015E-24
 -1.7550000E-03    1.0000009E-24
 -1.7199999E-03    9.9999972E-25
 -1.6850000E-03    9.9999923E-25
 -1.6500000E-03    9.9999982E-25
 -1.6150000E-03    1.0000003E-24
 -1.5800000E-03    1.0000012E-24
 -1.5450000E-03    1.0000014E-24
 -1.5100000E-03    9.9999903E-25
 -1.4750001E-03    9.9999815E-25
 -1.4400000E-03    1.0000003E-24
 -1.4050000E-03    1.0000008E-24
 -1.3700000E-03    9.9999963E-25
 -1.3350000E-03    1.0000008E-24
 -1.3000000E-03    1.0000014E-24
 -1.2650000E-03    9.9999854E-25
 -1.2300001E-03    9.9999824E-25
 -1.1950000E-03    1.0000008E-24
 -1.1600000E-03    1.0000009E-24
 -1.1250000E-03    9.9999963E-25
 -1.0900000E-03    1.0000003E-24
 -1.0550000E-03    1.0000009E-24
 -1.0200000E-03    1.0000004E-24
 -9.8500005E-04    9.9999992E-25
 -9.5000002E-04    9.9999982E-25
 -9.1499998E-04    1.0000000E-24
 -8.8000001E-04    9.9999992E-25
 -8.4499997E-04    1.0000006E-24
 -8.1000000E-04    1.0000013E-24
 -7.7500002E-04    9.9999992E-25
 -7.3999999E-04    9.9999884E-25
 -7.0500001E-04    1.0000001E-24
 -6.6999998E-04    1.0000010E-24
 -6.3500000E-04    9.9999982E-25
 -6.0000003E-04    9.9999874E-25
 -5.6499999E-04    1.0000001E-24
 -5.3000002E-04    1.0000017E-24
 -4.9499999E-04    1.0000002E-24
 -4.6000001E-04    9.9999795E-25
 -4.2500001E-04    1.0000000E-24
 -3.9000000E-04    1.0000024E-24
 -3.5500000E-04    1.0000001E-24
 -3.1999999E-04    9.9999913E-25
 -2.8499999E-04    1.0000005E-24
 -2.5000001E-04    9.9999972E-25
 -2.1499999E-04    9.9999893E-25
 -1.8000000E-04    1.0000009E-24
 -1.4500000E-04    1.0000008E-24
 -1.1000000E-04    9.9999982E-25
 -7.5000004E-05    1.0000008E-24
 -3.9999999E-05    1.0000004E-24
 -4.9999999E-06    9.9999933E-25
  2.9999999E-05    1.0000003E-24
  6.5000000E-05    1.0000000E-24
  9.9999997E-05    9.9999923E-25
  1.3499999E-04    9.9999982E-25
  1.7000000E-04    9.9999992E-25
  2.0500000E-04    9.9999963E-25
  2.3999999E-04    1.0000004E-24
  2.7500000E-04    1.0000002E-24
  3.1000000E-04    1.0000004E-24
  3.4500001E-04    1.0000009E-24
  3.8000001E-04    9.9999972E-25
  4.1499999E-04    9.9999953E-25
  4.4999999E-04    1.0000017E-24
  4.8500000E-04    1.0000011E-24
  5.2000000E-04    9.9999844E-25
  5.5499998E-04    9.9999913E-25
  5.9000001E-04    1.0000008E-24
  6.2499999E-04    1.0000003E-24
  6.6000002E-04    1.0000002E-24
  6.9500000E-04    1.0000011E-24
  7.3000003E-04    1.0000008E-24
  7.6500000E-04    9.9999854E-25
  7.9999998E-04    9.9999765E-25
  8.3500001E-04    1.0000013E-24
  8.6999999E-04    1.0000052E-24
  9.0500002E-04    9.9999824E-25
  9.4000000E-04    9.9999203E-25
  9.7499997E-04    1.0000053E-24
  1.0100000E-03    1.0000147E-24
  1.0450000E-03    9.9998700E-25
  1.0800000E-03    9.9997704E-25
  1.1150000E-03    1.0000306E-24
  1.1500000E-03    1.0000344E-24
  1.1849999E-03    9.9994322E-25
  1.2200000E-03    9.9996472E-25
  1.2550000E-03    1.0000863E-24
  1.2900000E-03    1.0000118E-24
  1.3250000E-03    9.9988051E-25
  1.3600000E-03    1.0000275E-24
  1.3950000E-03    1.0001238E-24
  1.4299999E-03    9.9984501E-25
  1.4650000E-03    9.9995081E-25
  1.5000000E-03    1.0002711E-24
  1.5350000E-03    9.9980133E-25
  1.5700000E-03    9.9965548E-25
  1.6050000E-03    1.0005961E-24
  1.6400000E-03    1.0004503E-24
  1.6749999E-03    9.9862188E-25
  1.7100000E-03    9.9984323E-25
  1.7450000E-03    1.0027815E-24
  1.7800000E-03    9.9980813E-25
  1.8150000E-03    9.9506668E-25
  1.8500000E-03    1.0015396E-24
  1.8850000E-03    1.0068772E-24
  1.9200000E-03    9.9621191E-25
  1.9550000E-03    9.9006274E-25
  1.9900000E-03    1.0083690E-24
  2.0250001E-03    1.0136683E-24
  2.0600001E-03    9.8908317E-25
  2.0949999E-03    9.8484886E-25
  2.1299999E-03    1.0168222E-24
  2.1650000E-03    1.0234830E-24
  2.2000000E-03    9.7970953E-25
  2.2350000E-03    9.7481159E-25
  2.2700001E-03    1.0243154E-24
  2.3050001E-03    1.0182911E-24
  2.3399999E-03    9.8582705E-25
  2.3749999E-03    9.9949742E-25
  2.4100000E-03    9.6827243E-25
  2.4450000E-03    9.8463370E-25
  2.4800000E-03    1.0733198E-24
  2.5150001E-03    1.0432200E-24
  2.5500001E-03    8.2521758E-25
  2.5849999E-03    8.4549865E-25
  2.6199999E-03    1.3509411E-24
  2.6550000E-03    1.2986448E-24
  2.6900000E-03    5.3077293E-25
  2.7250000E-03    7.2924028E-25
  2.7600001E-03    2.0219842E-24
  2.7950001E-03    1.6084137E-24
  2.8299999E-03   -1.1578629E-24
  2.8649999E-03    1.3907953E-25
  2.9000000E-03    3.3423544E-24
  2.9350000E-03    2.2993485E-24
  2.9700000E-03   -2.5892614E-24
  3.0050001E-03   -7.1121648E-25
  3.0400001E-03    6.4805101E-24
  3.0749999E-03    4.1346227E-24
  3.1099999E-03   -3.9578505E-24
  3.1450000E-03   -2.1132759E-24
  3.1800000E-03    5.8116673E-24
  3.2150000E-03    4.3786340E-24
  3.2500001E-03    1.3158192E-24
  3.2850001E-03   -1.3021388E-23
  3.3199999E-03   -9.8924838E-24
  3.3549999E-03    2.5524197E-23
  3.3900000E-03    8.9164530E-24
  3.4250000E-03   -4.1357071E-23
  3.4600000E-03   -1.2207045E-23
  3.4950001E-03    4.9399092E-23
  3.5300001E-03    7.1537510E-23
  3.5649999E-03   -2.3735567E-23
  3.5999999E-03   -1.1128217E-22
  3.6350000E-03    4.4110675E-23
  3.6700000E-03    2.1537132E-22
  3.7050000E-03   -7.4726787E-23
  3.7400001E-03   -2.9456021E-22
  3.7750001E-03   -2.1788627E-23
  3.8099999E-03    4.5836247E-22
  3.8449999E-03    2.1812206E-22
  3.8800000E-03   -5.3503798E-22
  3.9149998E-03   -4.2366819E-22
  3.9499998E-03    8.7086548E-22
  3.9849998E-03    9.2221026E-22
  4.0199999E-03   -1.0549278E-21
  4.0549999E-03   -1.5167355E-21
  4.0899999E-03    1.1311178E-21
  4.1250000E-03    2.1705987E-21
  4.1600000E-03   -4.7138768E-22
  4.1950000E-03   -2.3555323E-21
  4.2300001E-03    8.8672850E-23
  4.2650001E-03    2.8973780E-21
  4.3000001E-03    1.8816463E-21
  4.3350002E-03   -2.8590357E-21
  4.3700002E-03   -2.6639434E-21
  4.4049998E-03    3.1408848E-21
  4.4399998E-03    7.7322695E-21
  4.4749998E-03   -1.3825431E-21
  4.5099999E-03   -1.2218883E-20
  4.5449999E-03   -8.3897566E-23
  4.5799999E-03    1.7211286E-20
  4.6150000E-03    6.4576779E-21
  4.6500000E-03   -2.1056330E-20
  4.6850001E-03   -2.0308053E-20
  4.7200001E-03    2.0270710E-20
  4.7550001E-03    3.1082284E-20
  4.7900002E-03   -1.6584315E-20
  4.8250002E-03   -4.8027134E-20
  4.8600002E-03   -7.2490595E-21
  4.8949998E-03    5.3787578E-20
  4.9299998E-03    3.5230928E-20
  4.9649999E-03   -6.2435657E-20
  4.9999999E-03   -7.8559889E-20
  5.0349999E-03    5.2042798E-20
  5.0700000E-03    1.1443798E-19
  5.1050000E-03    3.6703741E-21
  5.1400000E-03   -1.3501838E-19
  5.1750001E-03   -9.0385069E-20
  5.2100001E-03    1.6074195E-19
  5.2450001E-03    2.0250735E-19
  5.2800002E-03   -9.8383395E-20
  5.3150002E-03   -3.5382175E-19
  5.3500002E-03   -7.1024241E-20
  5.3849998E-03    4.5721767E-19
  5.4199998E-03    2.9623168E-19
  5.4549999E-03   -5.1579193E-19
  5.4899999E-03   -7.1170253E-19
  5.5249999E-03    3.5586538E-19
  5.5600000E-03    1.2245103E-18
  5.5950000E-03    1.0025578E-19
  5.6300000E-03   -1.5768598E-18
  5.6650001E-03   -7.3684158E-19
  5.7000001E-03    2.1119505E-18
  5.7350001E-03    2.0700460E-18
  5.7700002E-03   -1.8480547E-18
  5.8050002E-03   -3.7147614E-18
  5.8400002E-03    7.9860798E-19
  5.8749998E-03    5.7207290E-18
  5.9099998E-03    1.3529049E-18
  5.9449999E-03   -7.6191482E-18
  5.9799999E-03   -5.0373608E-18
  6.0149999E-03    8.3113470E-18
  6.0500000E-03    1.0209767E-17
  6.0850000E-03   -7.0675701E-18
  6.1200000E-03   -1.6444122E-17
  6.1550001E-03    2.8733318E-18
  6.1900001E-03    2.2391169E-17
  6.2250001E-03    5.2467657E-18
  6.2600002E-03   -2.7714676E-17
  6.2950002E-03   -1.8316841E-17
  6.3299998E-03    2.9367618E-17
  6.3649998E-03    3.7172994E-17
  6.3999998E-03   -2.2935961E-17
  6.4349999E-03   -5.8907965E-17
  6.4699999E-03    5.9460964E-18
  6.5049999E-03    7.9383809E-17
  6.5400000E-03    2.3299603E-17
  6.5750000E-03   -9.3476584E-17
  6.6100000E-03   -6.5944645E-17
  6.6450001E-03    9.5205418E-17
  6.6800001E-03    1.2157362E-16
  6.7150001E-03   -7.5534831E-17
  6.7500002E-03   -1.8347045E-16
  6.7850002E-03    2.7279176E-17
  6.8199998E-03    2.4214168E-16
  6.8549998E-03    5.6116250E-17
  6.8899998E-03   -2.8442289E-16
  6.9249999E-03   -1.7767175E-16
  6.9599999E-03    2.8976634E-16
  6.9949999E-03    3.2988010E-16
  7.0300000E-03   -2.3827092E-16
  7.0650000E-03   -4.9351236E-16
  7.1000000E-03    1.0912009E-16
  7.1350001E-03    6.4231223E-16
  7.1700001E-03    1.0818209E-16
  7.2050001E-03   -7.4061845E-16
  7.2400002E-03   -4.1616243E-16
  7.2750002E-03    7.4583030E-16
  7.3099998E-03    7.9098981E-16
  7.3449998E-03   -6.1287424E-16
  7.3799998E-03   -1.1961896E-15
  7.4149999E-03    3.0012934E-16
  7.4499999E-03    1.5598495E-15
  7.4850000E-03    2.0928170E-16
  7.5200000E-03   -1.8137944E-15
  7.5550000E-03   -9.1639880E-16
  7.5900001E-03    1.8589383E-15
  7.6250001E-03    1.7794695E-15
  7.6600001E-03   -1.6021371E-15
  7.6950002E-03   -2.7197747E-15
  7.7300002E-03    9.5347502E-16
  7.7650002E-03    3.5904270E-15
  7.7999998E-03    1.2826531E-16
  7.8349998E-03   -4.2389760E-15
  7.8699999E-03   -1.6494011E-15
  7.9049999E-03    4.4726876E-15
  7.9399999E-03    3.5420121E-15
  7.9750000E-03   -4.0646735E-15
  8.0100000E-03   -5.6462687E-15
  8.0450000E-03    2.8157112E-15
  8.0800001E-03    7.7039900E-15
  8.1150001E-03   -5.9985492E-16
  8.1500001E-03   -9.3616538E-15
  8.1850002E-03   -2.6208235E-15
  8.2200002E-03    1.0197330E-14
  8.2550002E-03    6.7658302E-15
  8.2900003E-03   -9.6943700E-15
  8.3250003E-03   -1.1537385E-14
  8.3600003E-03    7.3665117E-15
  8.3950004E-03    1.6407506E-14
  8.4300004E-03   -2.7997711E-15
  8.4650004E-03   -2.0573285E-14
  8.5000005E-03   -4.2164025E-15
  8.5349996E-03    2.2949190E-14
  8.5699996E-03    1.3529094E-14
  8.6049996E-03   -2.2274724E-14
  8.6399997E-03   -2.4457448E-14
  8.6749997E-03    1.7302188E-14
  8.7099997E-03    3.5728321E-14
  8.7449998E-03   -6.9350187E-15
  8.7799998E-03   -4.5319918E-14
  8.8149998E-03   -9.3346300E-15
  8.8499999E-03    5.0540183E-14
  8.8849999E-03    3.1047783E-14
  8.9199999E-03   -4.8257097E-14
  8.9550000E-03   -5.6330015E-14
  8.9900000E-03    3.5409298E-14
  9.0250000E-03    8.1564008E-14
  9.0600001E-03   -9.8143615E-15
  9.0950001E-03   -1.0140006E-13
  9.1300001E-03   -2.8796261E-14
  9.1650002E-03    1.0919712E-13
  9.2000002E-03    7.7844869E-14
  9.2350002E-03   -9.8111609E-14
  9.2700003E-03   -1.3113278E-13
  9.3050003E-03    6.2641305E-14
  9.3400003E-03    1.7879300E-13
  9.3750004E-03   -6.4612817E-16
  9.4100004E-03   -2.0798950E-13
  9.4450004E-03   -8.4624690E-14
  9.4799995E-03    2.0480323E-13
  9.5149996E-03    1.8277427E-13
  9.5499996E-03   -1.5762013E-13
  9.5849996E-03   -2.7611103E-13
  9.6199997E-03    6.1090523E-14
  9.6549997E-03    3.4150813E-13
  9.6899997E-03    8.0129154E-14
  9.7249998E-03   -3.5428458E-13
  9.7599998E-03   -2.4919707E-13
  9.7949998E-03    2.9389276E-13
  9.8299999E-03    4.1698592E-13
  9.8649999E-03   -1.5036259E-13
  9.8999999E-03   -5.4532382E-13
  9.9350000E-03   -6.9788407E-14
  9.9700000E-03    5.9341583E-13
  1.0005000E-02    3.3922856E-13
  1.0040000E-02   -5.2794493E-13
  1.0075000E-02   -6.1043054E-13
  1.0110000E-02    3.3493493E-13
  1.0145000E-02    8.2315220E-13
  1.0180000E-02   -2.8242403E-14
  1.0215000E-02   -9.1694545E-13
  1.0250000E-02   -3.4699199E-13
  1.0285000E-02    8.4705881E-13
  1.0320000E-02    7.1887960E-13
  1.0355000E-02   -5.9940735E-13
  1.0390000E-02   -1.0011770E-12
  1.0425000E-02    2.0165761E-13
  1.0460000E-02    1.1128403E-12
  1.0495000E-02    2.7438964E-13
  1.0530000E-02   -1.0025245E-12
  1.0565000E-02   -7.2384535E-13
  1.0600000E-02    6.6967688E-13
  1.0635000E-02    1.0327900E-12
  1.0670000E-02   -1.7562785E-13
  1.0705000E-02   -1.1132019E-12
  1.0740000E-02   -3.6627781E-13
  1.0775000E-02    9.3439818E-13
  1.0810000E-02    8.1932692E-13
  1.0845000E-02   -5.4019365E-13
  1.0880000E-02   -1.0639005E-12
  1.0915000E-02    4.4057731E-14
  1.0950000E-02    1.0370557E-12
  1.0985000E-02    3.9623811E-13
  1.1020000E-02   -7.6322949E-13
  1.1055000E-02   -6.2414153E-13
  1.1090000E-02    3.6386302E-13
  1.1125000E-02    5.4328834E-13
  1.1160000E-02   -3.1697060E-14
  1.1195000E-02   -1.6825996E-13
  1.1230000E-02   -3.0554128E-14
  1.1265000E-02   -3.5832042E-13
  1.1300000E-02   -3.1291349E-13
  1.1335000E-02    7.9396868E-13
  1.1370000E-02    1.0654312E-12
  1.1405000E-02   -8.6447407E-13
  1.1440000E-02   -2.0665778E-12
  1.1475000E-02    3.5431266E-13
  1.1510000E-02    3.0076085E-12
  1.1545000E-02    8.0296821E-13
  1.1580000E-02   -3.4977227E-12
  1.1615000E-02   -2.4607462E-12
  1.1650000E-02    3.1722552E-12
  1.1685000E-02    4.2449599E-12
  1.1720000E-02   -1.8264351E-12
  1.1755000E-02   -5.6167055E-12
  1.1790000E-02   -4.7037759E-13
  1.1825000E-02    6.0107514E-12
  1.1860000E-02    3.3317444E-12
  1.1895000E-02   -5.0105475E-12
  1.1930000E-02   -6.1093019E-12
  1.1965000E-02    2.4985866E-12
  1.2000000E-02    8.0247866E-12
  1.2035000E-02    1.2447243E-12
  1.2070000E-02   -8.3649520E-12
  1.2105000E-02   -5.5250743E-12
  1.2140000E-02    6.7225617E-12
  1.2175000E-02    9.3626530E-12
  1.2210000E-02   -3.1920183E-12
  1.2245000E-02   -1.1755930E-11
  1.2280000E-02   -1.5815990E-12
  1.2315000E-02    1.1991906E-11
  1.2350000E-02    6.5297967E-12
  1.2385000E-02   -9.8995482E-12
  1.2420000E-02   -1.0426743E-11
  1.2455000E-02    6.0013158E-12
  1.2490000E-02    1.2312397E-11
  1.2525000E-02   -1.3814226E-12
  1.2560000E-02   -1.1856327E-11
  1.2595000E-02   -2.7047331E-12
  1.2630000E-02    9.4410799E-12
  1.2665000E-02    5.2525610E-12
  1.2700000E-02   -5.9893609E-12
  1.2735000E-02   -5.7516769E-12
  1.2770000E-02    2.7715707E-12
  1.2805000E-02    4.4737794E-12
  1.2840000E-02   -9.6158671E-13
  1.2875000E-02   -2.5348924E-12
  1.2910000E-02    9.7847717E-13
  1.2945000E-02    1.4133239E-12
  1.2980000E-02   -2.1021195E-12
  1.3015000E-02   -2.0162264E-12
  1.3050000E-02    3.0364977E-12
  1.3085000E-02    4.4007758E-12
  1.3120000E-02   -2.4322332E-12
  1.3155000E-02   -7.8199513E-12
  1.3190000E-02   -7.6945449E-13
  1.3225000E-02    1.0759739E-11
  1.3260000E-02    6.8851118E-12
  1.3295000E-02   -1.1047106E-11
  1.3330000E-02   -1.4575551E-11
  1.3365000E-02    7.3501136E-12
  1.3400000E-02    2.1592889E-11
  1.3435000E-02    3.7667851E-13
  1.3470000E-02   -2.5527667E-11
  1.3505000E-02   -1.0779736E-11
  1.3540000E-02    2.4768965E-11
  1.3575000E-02    2.1853842E-11
  1.3610000E-02   -1.7974903E-11
  1.3645000E-02   -2.9984407E-11
  1.3680000E-02    6.3666034E-12
  1.3715000E-02    3.2149821E-11
  1.3750000E-02    7.0062059E-12
  1.3785000E-02   -2.6901002E-11
  1.3820000E-02   -1.7488670E-11
  1.3855000E-02    1.6107470E-11
  1.3890000E-02    2.2670411E-11
  1.3925000E-02   -1.7725628E-12
  1.3960000E-02   -1.9846310E-11
  1.3995000E-02   -1.1376257E-11
  1.4030000E-02    9.7223436E-12
  1.4065000E-02    1.9032611E-11
  1.4100000E-02    5.1202150E-12
  1.4135000E-02   -1.6943683E-11
  1.4170000E-02   -1.7592068E-11
  1.4205000E-02    7.4147754E-12
  1.4240000E-02    2.4618623E-11
  1.4275000E-02    8.1279376E-12
  1.4310000E-02   -2.0482246E-11
  1.4345000E-02   -2.0672958E-11
  1.4380000E-02    8.3762944E-12
  1.4415000E-02    2.7119378E-11
  1.4450000E-02    1.1276525E-11
  1.4485000E-02   -1.9507049E-11
  1.4520000E-02   -2.8002118E-11
  1.4555000E-02    2.9886610E-12
  1.4590000E-02    3.9047245E-11
  1.4625000E-02    2.4717178E-11
  1.4660000E-02   -3.3171649E-11
  1.4695000E-02   -4.8495902E-11
  1.4730000E-02    1.5595273E-11
  1.4765000E-02    6.7759874E-11
  1.4800000E-02    1.9269326E-11
  1.4835000E-02   -6.4966657E-11
  1.4870000E-02   -4.7935274E-11
  1.4905000E-02    5.4984999E-11
  1.4940000E-02    7.7916187E-11
  1.4975000E-02   -2.5638028E-11
  1.5010000E-02   -8.9485162E-11
  1.5045000E-02   -7.5155914E-12
  1.5080000E-02    9.0171093E-11
  1.5115000E-02    5.2678983E-11
  1.5150000E-02   -5.7584371E-11
  1.5185000E-02   -7.2510657E-11
  1.5220000E-02    2.4893115E-11
  1.5255000E-02    8.5192395E-11
  1.5290000E-02    2.0747806E-11
  1.5325000E-02   -6.7256999E-11
  1.5360000E-02   -4.7183705E-11
  1.5395000E-02    4.9999980E-11
  1.5430000E-02    8.0887977E-11
  1.5465000E-02    4.8158808E-12
  1.5500000E-02   -6.6992759E-11
  1.5535000E-02   -3.4244111E-11
  1.5570000E-02    4.8487794E-11
  1.5605000E-02    6.1004229E-11
  1.5640000E-02   -4.3688629E-12
  1.5675001E-02   -4.6134423E-11
  1.5710000E-02   -1.5345397E-11
  1.5745001E-02    4.5240825E-11
  1.5780000E-02    5.8998181E-11
  1.5814999E-02    8.3894471E-12
  1.5850000E-02   -4.2004362E-11
  1.5884999E-02   -3.2329799E-11
  1.5920000E-02    1.3690197E-11
  1.5954999E-02    4.4424370E-11
  1.5990000E-02    4.8551874E-11
  1.6024999E-02    1.2747727E-11
  1.6060000E-02   -2.7343385E-11
  1.6094999E-02   -1.7075764E-11
  1.6130000E-02    3.2722523E-11
  1.6164999E-02    5.4455433E-11
  1.6200000E-02    1.7932811E-11
  1.6235000E-02   -3.8959301E-11
  1.6270000E-02   -4.6553969E-11
  1.6305000E-02    4.0329649E-11
  1.6340001E-02    9.9730807E-11
  1.6375000E-02    1.7926454E-11
  1.6410001E-02   -8.1610219E-11
  1.6445000E-02   -4.4954065E-11
  1.6480001E-02    6.2945781E-11
  1.6515000E-02    8.3807919E-11
  1.6550001E-02   -8.1209197E-12
  1.6585000E-02   -6.8950179E-11
  1.6620001E-02    5.0357544E-12
  1.6655000E-02    9.3698237E-11
  1.6690001E-02    3.9441915E-11
  1.6725000E-02   -4.4073901E-11
  1.6759999E-02   -8.1860725E-12
  1.6795000E-02    4.6853323E-11
  1.6829999E-02    1.4738473E-11
  1.6865000E-02   -4.2064189E-11
  1.6899999E-02   -4.0749008E-11
  1.6935000E-02   -4.5079994E-12
  1.6969999E-02    4.4070622E-11
  1.7005000E-02    4.8769429E-11
  1.7039999E-02   -1.2030067E-11
  1.7075000E-02   -6.5756636E-11
  1.7109999E-02   -5.2809278E-11
  1.7145000E-02    3.8567753E-11
  1.7180000E-02    1.0779506E-10
  1.7215000E-02    7.8522145E-12
  1.7250000E-02   -1.6439840E-10
  1.7285001E-02   -1.1065375E-10
  1.7320000E-02    1.2054559E-10
  1.7355001E-02    1.4051707E-10
  1.7390000E-02   -8.0944799E-11
  1.7425001E-02   -1.5903193E-10
  1.7460000E-02    2.1912847E-11
  1.7495001E-02    9.6765686E-11
  1.7530000E-02   -4.5740634E-11
  1.7565001E-02   -1.3487546E-10
  1.7600000E-02   -7.2415469E-11
  1.7635001E-02    1.5754674E-11
  1.7670000E-02    5.1476136E-11
  1.7704999E-02    3.5727764E-11
  1.7740000E-02   -1.5072252E-11
  1.7774999E-02   -1.1521523E-10
  1.7810000E-02   -1.5223980E-10
  1.7844999E-02   -1.8512202E-11
  1.7880000E-02    1.1642286E-10
  1.7914999E-02    3.5643811E-11
  1.7950000E-02   -1.2637914E-10
  1.7984999E-02   -1.4712266E-10
  1.8020000E-02   -2.9254973E-11
  1.8054999E-02    7.5723962E-11
  1.8090000E-02    9.9486209E-12
  1.8124999E-02   -1.1528070E-10
  1.8160000E-02   -2.9206901E-11
  1.8195000E-02    5.7493694E-11
  1.8230001E-02   -1.1303322E-10
  1.8265000E-02   -1.4933207E-10
  1.8300001E-02    1.2850167E-10
  1.8335000E-02    1.6747591E-10
  1.8370001E-02   -1.2758301E-10
  1.8405000E-02   -1.7817228E-10
  1.8440001E-02    1.7825300E-11
  1.8475000E-02    1.1472534E-11
  1.8510001E-02   -9.6510376E-11
  1.8545000E-02   -4.1881582E-11
  1.8580001E-02    4.0513901E-11
  1.8615000E-02    2.2853648E-11
  1.8650001E-02   -2.4731895E-11
  1.8685000E-02   -7.2216760E-11
  1.8719999E-02   -3.4655064E-11
  1.8755000E-02    4.5137286E-11
  1.8789999E-02   -1.7539494E-11
  1.8825000E-02   -5.2126452E-11
  1.8859999E-02    1.3031262E-10
  1.8895000E-02    1.6114397E-10
  1.8929999E-02   -4.6709928E-11
  1.8965000E-02   -1.7260835E-11
  1.8999999E-02    1.2599917E-10
  1.9035000E-02   -3.8500290E-11
  1.9069999E-02   -1.4016110E-10
  1.9105000E-02    1.2387869E-10
  1.9140000E-02    2.3092996E-10
  1.9175000E-02   -3.0704925E-11
  1.9210000E-02   -1.5737985E-10
  1.9245001E-02    4.3516715E-11
  1.9280000E-02    2.1581832E-10
  1.9315001E-02    1.2356394E-10
  1.9350000E-02   -4.3180182E-11
  1.9385001E-02   -3.1411096E-11
  1.9420000E-02    6.9456878E-11
  1.9455001E-02    1.0720329E-10
  1.9490000E-02    1.8384713E-10
  1.9525001E-02    2.4637797E-10
  1.9560000E-02    6.8389142E-11
  1.9595001E-02   -1.2834658E-10
  1.9630000E-02    2.2181656E-11
  1.9664999E-02    2.6225869E-10
  1.9700000E-02    1.5130087E-10
  1.9734999E-02   -1.3633458E-10
  1.9770000E-02   -1.6064236E-10
  1.9804999E-02    6.8963148E-11
  1.9840000E-02    2.2142828E-10
  1.9874999E-02    1.6951035E-10
  1.9910000E-02    8.3767951E-11
  1.9944999E-02    8.4742054E-11
  1.9980000E-02    4.2236770E-11
  2.0014999E-02   -9.6581722E-11
  2.0050000E-02   -7.8237666E-11
  2.0085000E-02    1.4846667E-10
  2.0120000E-02    2.2946912E-10
  2.0155000E-02    4.5213906E-11
  2.0190001E-02   -1.5168493E-10
  2.0225000E-02   -1.3054732E-10
  2.0260001E-02    1.9297132E-10
  2.0295000E-02    3.9356368E-10
  2.0330001E-02   -1.1564368E-10
  2.0365000E-02   -6.7799349E-10
  2.0400001E-02   -2.6543992E-10
  2.0435000E-02    4.0728407E-10
  2.0470001E-02    3.0363517E-10
  2.0505000E-02   -6.9274822E-11
  2.0540001E-02   -2.3119787E-10
  2.0575000E-02   -3.2160782E-10
  2.0609999E-02   -1.9443816E-11
  2.0645000E-02    4.2689938E-10
  2.0679999E-02    5.9155035E-11
  2.0715000E-02   -6.8072364E-10
  2.0749999E-02   -5.6061950E-10
  2.0785000E-02    2.1748946E-10
  2.0819999E-02    5.0516547E-10
  2.0855000E-02   -1.5152438E-10
  2.0889999E-02   -8.6685326E-10
  2.0925000E-02   -4.5827578E-10
  2.0959999E-02    4.1831316E-10
  2.0995000E-02    2.2425765E-10
  2.1029999E-02   -4.8669668E-10
  2.1065000E-02   -4.0257722E-10
  2.1100000E-02   -8.8406713E-13
  2.1135001E-02    7.3279341E-11
  2.1170000E-02    5.9500259E-11
  2.1205001E-02   -2.1209823E-10
  2.1240000E-02   -6.2956146E-10
  2.1275001E-02   -3.9634837E-10
  2.1310000E-02    2.1077130E-10
  2.1345001E-02    2.3713720E-10
  2.1380000E-02   -2.8105132E-10
  2.1415001E-02   -6.8881051E-10
  2.1450000E-02   -3.8804382E-10
  2.1485001E-02    4.7257898E-10
  2.1520000E-02    4.9748611E-10
  2.1555001E-02   -6.2477978E-10
  2.1590000E-02   -9.7149067E-10
  2.1624999E-02    2.1112962E-11
  2.1660000E-02    5.7613997E-10
  2.1694999E-02    2.0592701E-10
  2.1730000E-02   -1.5070585E-10
  2.1764999E-02   -4.0612524E-10
  2.1800000E-02   -4.8671628E-10
  2.1834999E-02    1.7073778E-11
  2.1870000E-02    4.6262547E-10
  2.1904999E-02    1.7171159E-10
  2.1940000E-02   -3.8512257E-10
  2.1974999E-02   -6.7897915E-10
  2.2010000E-02   -4.0619325E-10
  2.2045000E-02    4.9791488E-10
  2.2080000E-02    9.4757091E-10
  2.2115000E-02    1.1467849E-10
  2.2150001E-02   -7.1408829E-10
  2.2185000E-02   -2.5389280E-10
  2.2220001E-02    5.7620703E-10
  2.2255000E-02    5.5283633E-10
  2.2290001E-02   -7.9492680E-12
  2.2325000E-02   -4.3037218E-10
  2.2360001E-02   -5.7453287E-10
  2.2395000E-02   -1.6287499E-10
  2.2430001E-02    7.3734702E-10
  2.2465000E-02    9.8838637E-10
  2.2500001E-02    1.7832781E-10
  2.2535000E-02   -4.0839493E-10
  2.2569999E-02   -2.0006750E-10
  2.2605000E-02    4.0268748E-12
  2.2639999E-02    4.1229811E-11
  2.2675000E-02    1.8184275E-10
  2.2709999E-02    2.7558528E-10
  2.2745000E-02    3.9932588E-10
  2.2779999E-02    3.4633194E-10
  2.2815000E-02   -1.0622990E-10
  2.2849999E-02    1.2225052E-10
  2.2885000E-02    9.7798680E-10
  2.2919999E-02    3.0828079E-10
  2.2955000E-02   -1.3657515E-09
  2.2990000E-02   -1.1046495E-09
  2.3025000E-02    6.5893924E-10
  2.3060000E-02    1.3734548E-09
  2.3095001E-02    8.6820318E-10
  2.3130000E-02    2.3166818E-12
  2.3165001E-02   -6.9628003E-10
  2.3200000E-02   -3.1180894E-10
  2.3235001E-02    7.0501915E-10
  2.3270000E-02    6.5789046E-10
  2.3305001E-02   -2.5735569E-10
  2.3340000E-02   -5.9653738E-10
  2.3375001E-02   -1.4100336E-10
  2.3410000E-02    6.6033667E-10
  2.3445001E-02    1.0572785E-09
  2.3480000E-02    1.2306037E-10
  2.3514999E-02   -1.1590208E-09
  2.3550000E-02   -8.3008561E-10
  2.3584999E-02    3.1629832E-10
  2.3620000E-02    3.5002029E-10
  2.3654999E-02    5.5663116E-11
  2.3690000E-02    5.3980348E-10
  2.3724999E-02    5.2364596E-10
  2.3760000E-02   -3.6466691E-10
  2.3794999E-02   -5.0054139E-10
  2.3830000E-02    2.4745980E-10
  2.3864999E-02    6.4569339E-10
  2.3900000E-02    2.9120598E-10
  2.3934999E-02   -6.8996542E-10
  2.3970000E-02   -1.1414334E-09
  2.4005000E-02    1.9846172E-10
  2.4040001E-02    1.3403046E-09
  2.4075000E-02    2.0297099E-10
  2.4110001E-02   -8.5440194E-10
  2.4145000E-02   -2.4780045E-10
  2.4180001E-02   -1.0758026E-10
  2.4215000E-02   -2.0300006E-10
  2.4250001E-02    9.8614361E-10
  2.4285000E-02    9.9056352E-10
  2.4320001E-02   -1.0447790E-09
  2.4355000E-02   -1.4891157E-09
  2.4390001E-02    7.8346316E-11
  2.4425000E-02    7.9737417E-10
  2.4460001E-02    7.1593348E-10
  2.4495000E-02    4.6989451E-10
  2.4529999E-02   -4.6768112E-10
  2.4565000E-02   -5.7219618E-10
  2.4599999E-02    6.0484734E-10
  2.4635000E-02    4.3239312E-10
  2.4669999E-02   -4.8434473E-10
  2.4705000E-02    1.4229826E-10
  2.4739999E-02    1.7727891E-10
  2.4775000E-02   -1.1639273E-09
  2.4809999E-02   -5.2713955E-10
  2.4845000E-02    1.2008804E-09
  2.4879999E-02    8.0836160E-10
  2.4915000E-02    8.4844236E-11
  2.4950000E-02    9.5111537E-11
  2.4985000E-02   -8.9701541E-10
  2.5020000E-02   -5.7171218E-10
  2.5055001E-02    1.8071646E-09
  2.5090000E-02    1.0842833E-09
  2.5125001E-02   -1.8549302E-09
  2.5160000E-02   -9.2109564E-10
  2.5195001E-02    1.6026286E-09
  2.5230000E-02    1.1097100E-09
  2.5265001E-02   -4.8188696E-11
  2.5300000E-02   -3.5219955E-10
  2.5335001E-02   -7.6144574E-10
  2.5370000E-02    6.3300171E-11
  2.5405001E-02    9.7525987E-10
  2.5440000E-02   -4.0295867E-10
  2.5474999E-02   -1.1247164E-09
  2.5510000E-02    5.7726107E-10
  2.5544999E-02    1.2666622E-09
  2.5580000E-02    2.1709926E-10
  2.5614999E-02   -5.4958510E-10
  2.5650000E-02   -5.0387666E-10
  2.5684999E-02    7.9114115E-10
  2.5720000E-02    1.8095102E-09
  2.5754999E-02    2.4624238E-11
  2.5790000E-02   -1.7427240E-09
  2.5824999E-02   -4.5837681E-10
  2.5860000E-02    7.4714557E-10
  2.5895000E-02    5.4477484E-10
  2.5930000E-02    6.8967415E-10
  2.5965000E-02    1.7707770E-10
  2.6000001E-02   -6.2953887E-10
  2.6035000E-02    6.1161361E-11
  2.6070001E-02    6.3631811E-10
  2.6105000E-02    3.9942794E-10
  2.6140001E-02    3.4229386E-10
  2.6175000E-02   -7.2470130E-10
  2.6210001E-02   -2.1590074E-09
  2.6245000E-02    1.4190173E-10
  2.6280001E-02    3.0045992E-09
  2.6315000E-02    3.3875436E-10
  2.6350001E-02   -2.0337936E-09
  2.6385000E-02    1.1264062E-09
  2.6419999E-02    1.4303015E-09
  2.6455000E-02   -2.0247664E-09
  2.6489999E-02    2.0101519E-11
  2.6525000E-02    2.8163565E-09
  2.6559999E-02   -5.4941185E-10
  2.6595000E-02   -1.4461596E-09
  2.6629999E-02    9.9321495E-10
  2.6665000E-02   -1.2852004E-09
  2.6699999E-02   -1.3553607E-09
  2.6735000E-02    3.5887207E-09
  2.6769999E-02    1.0623944E-09
  2.6805000E-02   -4.9496101E-09
  2.6839999E-02   -4.3394618E-10
  2.6875000E-02    4.7043898E-09
  2.6910000E-02    4.7432719E-10
  2.6945001E-02   -8.4304919E-10
  2.6980000E-02    1.3882143E-09