 -4.8000002E-03    1.0000000E-24
 -4.7650002E-03    1.0000001E-24
 -4.7300002E-03    1.0000002E-24
 -4.6950001E-03    1.0000001E-24
 -4.6600001E-03    1.0000000E-24
 -4.6250001E-03    1.0000002E-24
 -4.5900000E-03    1.0000001E-24
 -4.5550000E-03    9.9999992E-25
 -4.5200000E-03    1.0000004E-24
 -4.4849999E-03    1.0000003E-24
 -4.4499999E-03    9.9999982E-25
 -4.4149999E-03    9.9999992E-25
 -4.3799998E-03    1.0000002E-24
 -4.3449998E-03    1.0000000E-24
 -4.3100002E-03    1.0000001E-24
 -4.2750002E-03    1.0000006E-24
 -4.2400002E-03    1.0000001E-24
 -4.2050001E-03    9.9999943E-25
 -4.1700001E-03    1.0000000E-24
 -4.1350001E-03    1.0000005E-24
 -4.1000000E-03    1.0000000E-24
 -4.0650000E-03    1.0000001E-24
 -4.0300000E-03    1.0000007E-24
 -3.9949999E-03    9.9999982E-25
 -3.9599999E-03    9.9999953E-25
 -3.9249999E-03    1.0000002E-24
 -3.8900001E-03    1.0000002E-24
 -3.8550000E-03    1.0000001E-24
 -3.8200000E-03    1.0000001E-24
 -3.7849999E-03    9.9999972E-25
 -3.7499999E-03    9.9999982E-25
 -3.7150001E-03    1.0000009E-24
 -3.6800001E-03    1.0000008E-24
 -3.6450000E-03    9.9999963E-25
 -3.6100000E-03    1.0000000E-24
 -3.5750000E-03    1.0000006E-24
 -3.5399999E-03    9.9999963E-25
 -3.5049999E-03    9.9999943E-25
 -3.4700001E-03    1.0000007E-24
 -3.4350001E-03    1.0000006E-24
 -3.4000000E-03    9.9999933E-25
 -3.3650000E-03    9.9999972E-25
 -3.3300000E-03    1.0000005E-24
 -3.2949999E-03    1.0000002E-24
 -3.2599999E-03    1.0000000E-24
 -3.2250001E-03    1.0000001E-24
 -3.1900001E-03    9.9999963E-25
 -3.1550000E-03    9.9999963E-25
 -3.1200000E-03    1.0000008E-24
 -3.0850000E-03    1.0000008E-24
 -3.0499999E-03    9.9999943E-25
 -3.0149999E-03    9.9999933E-25
 -2.9800001E-03    1.0000002E-24
 -2.9450001E-03    1.0000001E-24
 -2.9100000E-03    9.9999992E-25
 -2.8750000E-03    1.0000006E-24
 -2.8400000E-03    1.0000007E-24
 -2.8049999E-03    1.0000001E-24
 -2.7699999E-03    1.0000000E-24
 -2.7350001E-03    9.9999953E-25
 -2.7000001E-03    9.9999992E-25
 -2.6650000E-03    1.0000011E-24
 -2.6300000E-03    1.0000005E-24
 -2.5950000E-03    9.9999913E-25
 -2.5599999E-03    9.9999972E-25
 -2.5249999E-03    1.0000009E-24
 -2.4900001E-03    1.0000003E-24
 -2.4550001E-03    1.0000001E-24
 -2.4200000E-03    1.0000002E-24
 -2.3850000E-03    9.9999943E-25
 -2.3500000E-03    9.9999992E-25
 -2.3149999E-03    1.0000013E-24
 -2.2799999E-03    1.0000002E-24
 -2.2450001E-03    9.9999953E-25
 -2.2100001E-03    1.0000014E-24
 -2.1750000E-03    1.0000009E-24
 -2.1400000E-03    9.9999834E-25
 -2.1050000E-03    9.9999903E-25
 -2.0699999E-03    1.0000001E-24
 -2.0349999E-03    9.9999963E-25
 -2.0000001E-03    1.0000000E-24
 -1.9650001E-03    1.0000012E-24
 -1.9300000E-03    1.0000011E-24
 -1.8950000E-03    1.0000009E-24
 -1.8600000E-03    1.0000000E-24
 -1.8250000E-03    9.9999913E-25
 -1.7900000E-03    9.9999982E-25
 -1.7550000E-03    1.0000009E-24
 -1.7199999E-03    1.0000000E-24
 -1.6850000E-03    9.9999913E-25
 -1.6500000E-03    1.0000002E-24
 -1.6150000E-03    1.0000002E-24
 -1.5800000E-03    9.9999933E-25
 -1.5450000E-03    1.0000005E-24
 -1.5100000E-03    1.0000006E-24
 -1.4750001E-03    9.9999913E-25
 -1.4400000E-03    1.0000004E-24
 -1.4050000E-03    1.0000022E-24
 -1.3700000E-03    1.0000003E-24
 -1.3350000E-03    9.9999913E-25
 -1.3000000E-03    1.0000004E-24
 -1.2650000E-03    1.0000000E-24
 -1.2300001E-03    9.9999923E-25
 -1.1950000E-03    9.9999953E-25
 -1.1600000E-03    9.9999963E-25
 -1.1250000E-03    1.0000005E-24
 -1.0900000E-03    1.0000013E-24
 -1.0550000E-03    9.9999982E-25
 -1.0200000E-03    9.9999923E-25
 -9.8500005E-04    1.0000010E-24
 -9.5000002E-04    1.0000004E-24
 -9.1499998E-04    1.0000000E-24
 -8.8000001E-04    1.0000010E-24
 -8.4499997E-04    9.9999923E-25
 -8.1000000E-04    9.9999755E-25
 -7.7500002E-04    1.0000009E-24
 -7.3999999E-04    1.0000020E-24
 -7.0500001E-04    9.9999943E-25
 -6.6999998E-04    1.0000009E-24
 -6.3500000E-04    1.0000020E-24
 -6.0000003E-04    9.9999815E-25
 -5.6499999E-04    9.9999834E-25
 -5.3000002E-04    1.0000017E-24
 -4.9499999E-04    9.9999923E-25
 -4.6000001E-04    9.9999893E-25
 -4.2500001E-04    1.0000042E-24
 -3.9000000E-04    9.9999765E-25
 -3.5500000E-04    9.9999105E-25
 -3.1999999E-04    1.0000142E-24
 -2.8499999E-04    1.0000130E-24
 -2.5000001E-04    9.9996265E-25
 -2.1499999E-04    1.0000042E-24
 -1.8000000E-04    1.0000762E-24
 -1.4500000E-04    9.9992025E-25
 -1.1000000E-04    9.9989431E-25
 -7.5000004E-05    1.0002761E-24
 -3.9999999E-05    1.0000243E-24
 -4.9999999E-06    9.9935739E-25
  2.9999999E-05    1.0004258E-24
  6.5000000E-05    1.0011053E-24
  9.9999997E-05    9.9831117E-25
  1.3499999E-04    9.9882048E-25
  1.7000000E-04    1.0042672E-24
  2.0500000E-04    9.9950116E-25
  2.3999999E-04    9.9187505E-25
  2.7500000E-04    1.0066929E-24
  3.1000000E-04    1.0111816E-24
  3.4500001E-04    9.7831571E-25
  3.8000001E-04    9.9358885E-25
  4.1499999E-04    1.0501173E-24
  4.4999999E-04    9.7735005E-25
  4.8500000E-04    9.0668754E-25
  5.2000000E-04    1.1076474E-24
  5.5499998E-04    1.1421132E-24
  5.9000001E-04    6.9859264E-25
  6.2499999E-04    8.3303150E-25
  6.6000002E-04    1.6832341E-24
  6.9500000E-04    1.1096644E-24
  7.3000003E-04   -3.6467169E-25
  7.6500000E-04    1.1126294E-24
  7.9999998E-04    3.5025629E-24
  8.3500001E-04    4.2858941E-25
  8.6999999E-04   -3.3361192E-24
  9.0500002E-04    2.2273239E-24
  9.4000000E-04    8.2770615E-24
  9.7499997E-04   -7.1738138E-25
  1.0100000E-03   -1.1091400E-23
  1.0450000E-03    1.9483476E-24
  1.0800000E-03    2.1208082E-23
  1.1150000E-03    4.6421423E-24
  1.1500000E-03   -3.3157007E-23
  1.1849999E-03   -1.6398078E-23
  1.2200000E-03    5.9050631E-23
  1.2550000E-03    5.1740033E-23
  1.2900000E-03   -9.6833680E-23
  1.3250000E-03   -1.2208722E-22
  1.3600000E-03    1.6165370E-22
  1.3950000E-03    2.7032794E-22
  1.4299999E-03   -2.5101387E-22
  1.4650000E-03   -5.4897782E-22
  1.5000000E-03    3.6915497E-22
  1.5350000E-03    1.0671072E-21
  1.5700000E-03   -4.7810545E-22
  1.6050000E-03   -1.9783311E-21
  1.6400000E-03    4.9578391E-22
  1.6749999E-03    3.5358562E-21
  1.7100000E-03   -2.0128622E-22
  1.7450000E-03   -6.0793760E-21
  1.7800000E-03   -8.4159236E-22
  1.8150000E-03    1.0064550E-20
  1.8500000E-03    3.4922632E-21
  1.8850000E-03   -1.5971969E-20
  1.9200000E-03   -9.2675628E-21
  1.9550000E-03    2.4160036E-20
  1.9900000E-03    2.0744811E-20
  2.0250001E-03   -3.4428184E-20
  2.0600001E-03   -4.1991604E-20
  2.0949999E-03    4.5257888E-20
  2.1299999E-03    7.9070466E-20
  2.1650000E-03   -5.2381322E-20
  2.2000000E-03   -1.4028493E-19
  2.2350000E-03    4.6534254E-20
  2.2700001E-03    2.3587626E-19
  2.3050001E-03   -9.9999973E-21
  2.3399999E-03   -3.7629966E-19
  2.3749999E-03   -8.8063354E-20
  2.4100000E-03    5.6802286E-19
  2.4450000E-03    2.9740002E-19
  2.4800000E-03   -8.0500814E-19
  2.5150001E-03   -6.9239774E-19
  2.5500001E-03    1.0538180E-18
  2.5849999E-03    1.3755430E-18
  2.6199999E-03   -1.2298384E-18
  2.6550000E-03   -2.4739735E-18
  2.6900000E-03    1.1629543E-18
  2.7250000E-03    4.1218530E-18
  2.7600001E-03   -5.5279126E-19
  2.7950001E-03   -6.4175894E-18
  2.8299999E-03   -1.0816998E-18
  2.8649999E-03    9.3419115E-18
  2.9000000E-03    4.4459407E-18
  2.9350000E-03   -1.2621047E-17
  2.9700000E-03   -1.0482063E-17
  3.0050001E-03    1.5522393E-17
  3.0400001E-03    2.0309172E-17
  3.0749999E-03   -1.6580632E-17
  3.1099999E-03   -3.5031784E-17
  3.1450000E-03    1.3276380E-17
  3.1800000E-03    5.5340047E-17
  3.2150000E-03   -1.7299171E-18
  3.2500001E-03   -8.0818636E-17
  3.2850001E-03   -2.3465746E-17
  3.3199999E-03    1.0889867E-16
  3.3549999E-03    6.9069965E-17
  3.3900000E-03   -1.3344502E-16
  3.4250000E-03   -1.4239001E-16
  3.4600000E-03    1.4308916E-16
  3.4950001E-03    2.4949120E-16
  3.5300001E-03   -1.1961247E-16
  3.5649999E-03   -3.9205648E-16
  3.5999999E-03    3.6958645E-17
  3.6350000E-03    5.6263867E-16
  3.6700000E-03    1.3821921E-16
  3.7050000E-03   -7.3834041E-16
  3.7400001E-03   -4.4324747E-16
  3.7750001E-03    8.7350061E-16
  3.8099999E-03    9.1193748E-16
  3.8449999E-03   -8.9278840E-16
  3.8800000E-03   -1.5615912E-15
  3.9149998E-03    6.8715437E-16
  3.9499998E-03    2.3737931E-15
  3.9849998E-03   -1.1625836E-16
  4.0199999E-03   -3.2696050E-15
  4.0549999E-03   -9.7808493E-16
  4.0899999E-03    4.0819665E-15
  4.1250000E-03    2.7425860E-15
  4.1600000E-03   -4.5311337E-15
  4.1950000E-03   -5.2634759E-15
  4.2300001E-03    4.2125337E-15
  4.2650001E-03    8.4969000E-15
  4.3000001E-03   -2.6097208E-15
  4.3350002E-03   -1.2183120E-14
  4.3700002E-03   -8.5307134E-16
  4.4049998E-03    1.5756563E-14
  4.4399998E-03    6.7052106E-15
  4.4749998E-03   -1.8273176E-14
  4.5099999E-03   -1.5262712E-14
  4.5449999E-03    1.8386248E-14
  4.5799999E-03    2.6403250E-14
  4.6150000E-03   -1.4409293E-14
  4.6500000E-03   -3.9304345E-14
  4.6850001E-03    4.5059294E-15
  4.7200001E-03    5.2189423E-14
  4.7550001E-03    1.2962684E-14
  4.7900002E-03   -6.2151727E-14
  4.8250002E-03   -3.8925531E-14
  4.8600002E-03    6.5146530E-14
  4.8949998E-03    7.2954697E-14
  4.9299998E-03   -5.6251194E-14
  4.9649999E-03   -1.1256430E-13
  4.9999999E-03    3.0282048E-14
  5.0349999E-03    1.5259369E-13
  5.0700000E-03    1.7180644E-14
  5.1050000E-03   -1.8486974E-13
  5.1400000E-03   -8.8381579E-14
  5.1750001E-03    1.9838089E-13
  5.2100001E-03    1.8172407E-13
  5.2450001E-03   -1.8018990E-13
  5.2800002E-03   -2.9011139E-13
  5.3150002E-03    1.1724280E-13
  5.3500002E-03    3.9967926E-13
  5.3849998E-03    9.0492246E-16
  5.4199998E-03   -4.8938788E-13
  5.4549999E-03   -1.7861098E-13
  5.4899999E-03    5.3196900E-13
  5.5249999E-03    4.1032789E-13
  5.5600000E-03   -4.9666022E-13
  5.5950000E-03   -6.7713169E-13
  5.6300000E-03    3.5396049E-13
  5.6650001E-03    9.4454631E-13
  5.7000001E-03   -8.2252822E-14
  5.7350001E-03   -1.1627383E-12
  5.7700002E-03   -3.2439166E-13
  5.8050002E-03    1.2700337E-12
  5.8400002E-03    8.4844035E-13
  5.8749998E-03   -1.2003198E-12
  5.9099998E-03   -1.4428040E-12
  5.9449999E-03    8.9431896E-13
  5.9799999E-03    2.0283376E-12
  6.0149999E-03   -3.1393971E-13
  6.0500000E-03   -2.4969174E-12
  6.0850000E-03   -5.4209518E-13
  6.1200000E-03    2.7217209E-12
  6.1550001E-03    1.6243319E-12
  6.1900001E-03   -2.5752477E-12
  6.2250001E-03   -2.8241710E-12
  6.2600002E-03    1.9538145E-12
  6.2950002E-03    3.9747454E-12
  6.3299998E-03   -8.0527734E-13
  6.3649998E-03   -4.8637388E-12
  6.3999998E-03   -8.4476111E-13
  6.4349999E-03    5.2590506E-12
  6.4699999E-03    2.8738867E-12
  6.5049999E-03   -4.9461368E-12
  6.5400000E-03   -5.0569254E-12
  6.5750000E-03    3.7732126E-12
  6.6100000E-03    7.0787395E-12
  6.6450001E-03   -1.6970882E-12
  6.6800001E-03   -8.5690057E-12
  6.7150001E-03   -1.1808359E-12
  6.7500002E-03    9.1570423E-12
  6.7850002E-03    4.5991622E-12
  6.8199998E-03   -8.5386125E-12
  6.8549998E-03   -8.1487629E-12
  6.8899998E-03    6.5429762E-12
  6.9249999E-03    1.1314164E-11
  6.9599999E-03   -3.1882468E-12
  6.9949999E-03   -1.3541393E-11
  7.0300000E-03   -1.2865077E-12
  7.0650000E-03    1.4325754E-11
  7.1000000E-03    6.4240193E-12
  7.1350001E-03   -1.3306076E-11
  7.1700001E-03   -1.1593773E-11
  7.2050001E-03    1.0344875E-11
  7.2400002E-03    1.6075023E-11
  7.2750002E-03   -5.5745642E-12
  7.3099998E-03   -1.9161074E-11
  7.3449998E-03   -5.9930782E-13
  7.3799998E-03    2.0264996E-11
  7.4149999E-03    7.5358166E-12
  7.4499999E-03   -1.9011450E-11
  7.4850000E-03   -1.4430946E-11
  7.5200000E-03    1.5302905E-11
  7.5550000E-03    2.0415581E-11
  7.5900001E-03   -9.3500182E-12
  7.6250001E-03   -2.4665443E-11
  7.6600001E-03    1.6619660E-12
  7.6950002E-03    2.6506968E-11
  7.7300002E-03    6.9992363E-12
  7.7650002E-03   -2.5508082E-11
  7.7999998E-03   -1.5694470E-11
  7.8349998E-03    2.1545824E-11
  7.8699999E-03    2.3406660E-11
  7.9049999E-03   -1.4842997E-11
  7.9399999E-03   -2.9152483E-11
  7.9750000E-03    5.9729877E-12
  8.0100000E-03    3.2098182E-11
  8.0450000E-03    4.1617924E-12
  8.0800001E-03   -3.1687351E-11
  8.1150001E-03   -1.4392031E-11
  8.1500001E-03    2.7782103E-11
  8.1850002E-03    2.3424318E-11
  8.2200002E-03   -2.0769332E-11
  8.2550002E-03   -3.0075258E-11
  8.2900003E-03    1.1549213E-11
  8.3250003E-03    3.3525314E-11
  8.3600003E-03   -1.3794180E-12
  8.3950004E-03   -3.3492820E-11
  8.4300004E-03   -8.3623265E-12
  8.4650004E-03    3.0300554E-11
  8.5000005E-03    1.6440340E-11
  8.5349996E-03   -2.4857104E-11
  8.5699996E-03   -2.2063433E-11
  8.6049996E-03    1.8495701E-11
  8.6399997E-03    2.5194132E-11
  8.6749997E-03   -1.2561755E-11
  8.7099997E-03   -2.6650654E-11
  8.7449998E-03    7.8331178E-12
  8.7799998E-03    2.7791257E-11
  8.8149998E-03   -4.1090950E-12
  8.8499999E-03   -2.9888276E-11
  8.8849999E-03    2.1042017E-13
  8.9199999E-03    3.3513092E-11
  8.9550000E-03    5.6957529E-12
  8.9900000E-03   -3.8056547E-11
  9.0250000E-03   -1.5526245E-11
  9.0600001E-03    4.1396810E-11
  9.0950001E-03    3.0331238E-11
  9.1300001E-03   -4.0081639E-11
  9.1650002E-03   -4.9171875E-11
  9.2000002E-03    3.0411739E-11
  9.2350002E-03    6.8622434E-11
  9.2700003E-03   -9.9799622E-12
  9.3050003E-03   -8.3266935E-11
  9.3400003E-03   -2.1120647E-11
  9.3750004E-03    8.6706135E-11
  9.4100004E-03    5.9369773E-11
  9.4450004E-03   -7.3105529E-11
  9.4799995E-03   -9.7211475E-11
  9.5149996E-03    3.9895410E-11
  9.5499996E-03    1.2429313E-10
  9.5849996E-03    9.6920857E-12
  9.6199997E-03   -1.3115414E-10
  9.6549997E-03   -6.6982427E-11
  9.6899997E-03    1.1249156E-10
  9.7249998E-03    1.2049022E-10
  9.7599998E-03   -6.7885579E-11
  9.7949998E-03   -1.5750624E-10
  9.8299999E-03    2.6948890E-12
  9.8649999E-03    1.6580784E-10
  9.8999999E-03    6.9885875E-11
  9.9350000E-03   -1.3925840E-10
  9.9700000E-03   -1.3135229E-10
  1.0005000E-02    8.3034496E-11
  1.0040000E-02    1.6644142E-10
  1.0075000E-02   -1.0627528E-11
  1.0110000E-02   -1.6816093E-10
  1.0145000E-02   -6.2944677E-11
  1.0180000E-02    1.3531472E-10
  1.0215000E-02    1.2175792E-10
  1.0250000E-02   -7.2808128E-11
  1.0285000E-02   -1.4891015E-10
  1.0320000E-02   -2.9641413E-12
  1.0355000E-02    1.3616129E-10
  1.0390000E-02    6.8545399E-11
  1.0425000E-02   -9.1893410E-11
  1.0460000E-02   -1.0844415E-10
  1.0495000E-02    3.2067921E-11
  1.0530000E-02    1.1856002E-10
  1.0565000E-02    3.0036869E-11
  1.0600000E-02   -9.7751841E-11
  1.0635000E-02   -7.9074532E-11
  1.0670000E-02    5.1441140E-11
  1.0705000E-02    9.8382975E-11
  1.0740000E-02    7.0435915E-13
  1.0775000E-02   -8.5311119E-11
  1.0810000E-02   -3.5879539E-11
  1.0845000E-02    5.6837725E-11
  1.0880000E-02    4.9295363E-11
  1.0915000E-02   -2.8219158E-11
  1.0950000E-02   -4.7794865E-11
  1.0985000E-02    1.4635320E-12
  1.1020000E-02    2.7136255E-11
  1.1055000E-02    6.9771198E-12
  1.1090000E-02   -2.2510863E-12
  1.1125000E-02    4.5191446E-12
  1.1160000E-02   -1.5277436E-11
  1.1195000E-02   -3.9782552E-11
  1.1230000E-02   -1.1620703E-11
  1.1265000E-02    3.6910475E-11
  1.1300000E-02    2.0055685E-11
  1.1335000E-02   -4.7970319E-11
  1.1370000E-02   -6.4239086E-11
  1.1405000E-02   -6.3140066E-12
  1.1440000E-02    2.9070224E-11
  1.1475000E-02   -2.1852837E-11
  1.1510000E-02   -9.6711507E-11
  1.1545000E-02   -1.0213134E-10
  1.1580000E-02   -4.0629011E-11
  1.1615000E-02   -4.7869595E-12
  1.1650000E-02   -6.2383702E-11
  1.1685000E-02   -1.6792172E-10
  1.1720000E-02   -2.1018698E-10
  1.1755000E-02   -1.6034979E-10
  1.1790000E-02   -1.2706508E-10
  1.1825000E-02   -2.1131885E-10
  1.1860000E-02   -3.5480335E-10
  1.1895000E-02   -4.2111267E-10
  1.1930000E-02   -3.9857981E-10
  1.1965000E-02   -4.1840739E-10
  1.2000000E-02   -5.6922927E-10
  1.2035000E-02   -7.8259910E-10
  1.2070000E-02   -9.2932118E-10
  1.2105000E-02   -9.8542474E-10
  1.2140000E-02   -1.0760749E-09
  1.2175000E-02   -1.3368746E-09
  1.2210000E-02   -1.7233058E-09
  1.2245000E-02   -2.0370550E-09
  1.2280000E-02   -2.2192748E-09
  1.2315000E-02   -2.4970992E-09
  1.2350000E-02   -3.0675396E-09
  1.2385000E-02   -3.7633043E-09
  1.2420000E-02   -4.3029242E-09
  1.2455000E-02   -4.7788911E-09
  1.2490000E-02   -5.5473466E-09
  1.2525000E-02   -6.6633983E-09
  1.2560000E-02   -7.8183220E-09
  1.2595000E-02   -8.8804635E-09
  1.2630000E-02   -1.0109856E-08
  1.2665000E-02   -1.1735366E-08
  1.2700000E-02   -1.3665753E-08
  1.2735000E-02   -1.5744790E-08
  1.2770000E-02   -1.8010031E-08
  1.2805000E-02   -2.0595772E-08
  1.2840000E-02   -2.3602317E-08
  1.2875000E-02   -2.7101313E-08
  1.2910000E-02   -3.1082628E-08
  1.2945000E-02   -3.5448057E-08
  1.2980000E-02   -4.0252381E-08
  1.3015000E-02   -4.5802455E-08
  1.3050000E-02   -5.2284335E-08
  1.3085000E-02   -5.9525689E-08
  1.3120000E-02   -6.7413630E-08
  1.3155000E-02   -7.6251453E-08
  1.3190000E-02   -8.6374214E-08
  1.3225000E-02   -9.7754850E-08
  1.3260000E-02   -1.1034226E-07
  1.3295000E-02   -1.2441170E-07
  1.3330000E-02   -1.4022932E-07
  1.3365000E-02   -1.5778760E-07
  1.3400000E-02   -1.7721929E-07
  1.3435000E-02   -1.9899606E-07
  1.3470000E-02   -2.2336810E-07
  1.3505000E-02   -2.5017408E-07
  1.3540000E-02   -2.7959106E-07
  1.3575000E-02   -3.1240569E-07
  1.3610000E-02   -3.4910371E-07
  1.3645000E-02   -3.8945007E-07
  1.3680000E-02   -4.3346481E-07
  1.3715000E-02   -4.8201503E-07
  1.3750000E-02   -5.3591441E-07
  1.3785000E-02   -5.9522080E-07
  1.3820000E-02   -6.5995687E-07
  1.3855000E-02   -7.3082850E-07
  1.3890000E-02   -8.0873690E-07
  1.3925000E-02   -8.9415857E-07
  1.3960000E-02   -9.8741782E-07
  1.3995000E-02   -1.0891030E-06
  1.4030000E-02   -1.1999449E-06
  1.4065000E-02   -1.3207152E-06
  1.4100000E-02   -1.4523116E-06
  1.4135000E-02   -1.5955009E-06
  1.4170000E-02   -1.7507441E-06
  1.4205000E-02   -1.9187919E-06
  1.4240000E-02   -2.1010305E-06
  1.4275000E-02   -2.2986576E-06
  1.4310000E-02   -2.5121444E-06
  1.4345000E-02   -2.7421606E-06
  1.4380000E-02   -2.9902976E-06
  1.4415000E-02   -3.2581722E-06
  1.4450000E-02   -3.5465346E-06
  1.4485000E-02   -3.8560465E-06
  1.4520000E-02   -4.1882781E-06
  1.4555000E-02   -4.5450552E-06
  1.4590000E-02   -4.9274768E-06
  1.4625000E-02   -5.3364734E-06
  1.4660000E-02   -5.7736702E-06
  1.4695000E-02   -6.2408635E-06
  1.4730000E-02   -6.7393430E-06
  1.4765000E-02   -7.2703483E-06
  1.4800000E-02   -7.8355406E-06
  1.4835000E-02   -8.4366857E-06
  1.4870000E-02   -9.0753110E-06
  1.4905000E-02   -9.7528173E-06
  1.4940000E-02   -1.0470762E-05
  1.4975000E-02   -1.1230873E-05
  1.5010000E-02   -1.2034782E-05
  1.5045000E-02   -1.2884031E-05
  1.5080000E-02   -1.3780217E-05
  1.5115000E-02   -1.4724717E-05
  1.5150000E-02   -1.5718815E-05
  1.5185000E-02   -1.6764334E-05
  1.5220000E-02   -1.7863067E-05
  1.5255000E-02   -1.9015873E-05
  1.5290000E-02   -2.0223588E-05
  1.5325000E-02   -2.1487876E-05
  1.5360000E-02   -2.2810338E-05
  1.5395000E-02   -2.4191833E-05
  1.5430000E-02   -2.5632817E-05
  1.5465000E-02   -2.7133878E-05
  1.5500000E-02   -2.8696242E-05
  1.5535000E-02   -3.0321022E-05
  1.5570000E-02   -3.2007963E-05
  1.5605000E-02   -3.3756703E-05
  1.5640000E-02   -3.5568039E-05
  1.5675001E-02   -3.7442227E-05
  1.5710000E-02   -3.9378407E-05
  1.5745001E-02   -4.1376141E-05
  1.5780000E-02   -4.3434971E-05
  1.5814999E-02   -4.5553625E-05
  1.5850000E-02   -4.7731202E-05
  1.5884999E-02   -4.9966631E-05
  1.5920000E-02   -5.2257801E-05
  1.5954999E-02   -5.4602857E-05
  1.5990000E-02   -5.6999910E-05
  1.6024999E-02   -5.9446258E-05
  1.6060000E-02   -6.1939565E-05
  1.6094999E-02   -6.4477164E-05
  1.6130000E-02   -6.7054963E-05
  1.6164999E-02   -6.9669804E-05
  1.6200000E-02   -7.2318799E-05
  1.6235000E-02   -7.4996751E-05
  1.6270000E-02   -7.7699100E-05
  1.6305000E-02   -8.0422949E-05
  1.6340001E-02   -8.3162537E-05
  1.6375000E-02   -8.5911190E-05
  1.6410001E-02   -8.8665263E-05
  1.6445000E-02   -9.1419846E-05
  1.6480001E-02   -9.4167488E-05
  1.6515000E-02   -9.6902157E-05
  1.6550001E-02   -9.9618010E-05
  1.6585000E-02   -1.0230835E-04
  1.6620001E-02   -1.0496753E-04
  1.6655000E-02   -1.0758791E-04
  1.6690001E-02   -1.1016081E-04
  1.6725000E-02   -1.1268141E-04
  1.6759999E-02   -1.1514329E-04
  1.6795000E-02   -1.1753618E-04
  1.6829999E-02   -1.1985395E-04
  1.6865000E-02   -1.2209154E-04
  1.6899999E-02   -1.2423868E-04
  1.6935000E-02   -1.2628765E-04
  1.6969999E-02   -1.2823443E-04
  1.7005000E-02   -1.3007056E-04
  1.7039999E-02   -1.3178718E-04
  1.7075000E-02   -1.3337917E-04
  1.7109999E-02   -1.3483941E-04
  1.7145000E-02   -1.3616130E-04
  1.7180000E-02   -1.3734041E-04
  1.7215000E-02   -1.3836846E-04
  1.7250000E-02   -1.3923907E-04
  1.7285001E-02   -1.3995124E-04
  1.7320000E-02   -1.4049823E-04
  1.7355001E-02   -1.4087191E-04
  1.7390000E-02   -1.4107271E-04
  1.7425001E-02   -1.4109811E-04
  1.7460000E-02   -1.4094025E-04
  1.7495001E-02   -1.4059876E-04
  1.7530000E-02   -1.4007436E-04
  1.7565001E-02   -1.3936227E-04
  1.7600000E-02   -1.3846254E-04
  1.7635001E-02   -1.3737683E-04
  1.7670000E-02   -1.3610264E-04
  1.7704999E-02   -1.3464269E-04
  1.7740000E-02   -1.3300101E-04
  1.7774999E-02   -1.3117529E-04
  1.7810000E-02   -1.2916941E-04
  1.7844999E-02   -1.2699189E-04
  1.7880000E-02   -1.2464276E-04
  1.7914999E-02   -1.2212493E-04
  1.7950000E-02   -1.1944974E-04
  1.7984999E-02   -1.1662120E-04
  1.8020000E-02   -1.1364243E-04
  1.8054999E-02   -1.1052573E-04
  1.8090000E-02   -1.0727893E-04
  1.8124999E-02   -1.0390624E-04
  1.8160000E-02   -1.0041990E-04
  1.8195000E-02   -9.6830052E-05
  1.8230001E-02   -9.3143193E-05
  1.8265000E-02   -8.9372843E-05
  1.8300001E-02   -8.5530592E-05
  1.8335000E-02   -8.1622697E-05
  1.8370001E-02   -7.7663004E-05
  1.8405000E-02   -7.3666284E-05
  1.8440001E-02   -6.9640082E-05
  1.8475000E-02   -6.5596032E-05
  1.8510001E-02   -6.1548424E-05
  1.8545000E-02   -5.7506768E-05
  1.8580001E-02   -5.3484204E-05
  1.8615000E-02   -4.9494938E-05
  1.8650001E-02   -4.5545847E-05
  1.8685000E-02   -4.1647923E-05
  1.8719999E-02   -3.7818048E-05
  1.8755000E-02   -3.4064979E-05
  1.8789999E-02   -3.0395304E-05
  1.8825000E-02   -2.6822105E-05
  1.8859999E-02   -2.3355600E-05
  1.8895000E-02   -2.0003003E-05
  1.8929999E-02   -1.6774400E-05
  1.8965000E-02   -1.3676861E-05
  1.8999999E-02   -1.0715656E-05
  1.9035000E-02   -7.9002020E-06
  1.9069999E-02   -5.2370719E-06
  1.9105000E-02   -2.7285914E-06
  1.9140000E-02   -3.8003435E-07
  1.9175000E-02    1.8040492E-06
  1.9210000E-02    3.8222088E-06
  1.9245001E-02    5.6709714E-06
  1.9280000E-02    7.3487276E-06
  1.9315001E-02    8.8581273E-06
  1.9350000E-02    1.0198819E-05
  1.9385001E-02    1.1369367E-05
  1.9420000E-02    1.2373174E-05
  1.9455001E-02    1.3214226E-05
  1.9490000E-02    1.3895427E-05
  1.9525001E-02    1.4421335E-05
  1.9560000E-02    1.4796172E-05
  1.9595001E-02    1.5025000E-05
  1.9630000E-02    1.5115995E-05
  1.9664999E-02    1.5076081E-05
  1.9700000E-02    1.4911035E-05
  1.9734999E-02    1.4629667E-05
  1.9770000E-02    1.4240842E-05
  1.9804999E-02    1.3752282E-05
  1.9840000E-02    1.3173538E-05
  1.9874999E-02    1.2513899E-05
  1.9910000E-02    1.1782367E-05
  1.9944999E-02    1.0989909E-05
  1.9980000E-02    1.0145650E-05
  2.0014999E-02    9.2579767E-06
  2.0050000E-02    8.3390651E-06
  2.0085000E-02    7.3987117E-06
  2.0120000E-02    6.4433348E-06
  2.0155000E-02    5.4842703E-06
  2.0190001E-02    4.5324637E-06
  2.0225000E-02    3.5930796E-06
  2.0260001E-02    2.6749899E-06
  2.0295000E-02    1.7890186E-06
  2.0330001E-02    9.3953867E-07
  2.0365000E-02    1.3266724E-07
  2.0400001E-02   -6.2165992E-07
  2.0435000E-02   -1.3191320E-06
  2.0470001E-02   -1.9563929E-06
  2.0505000E-02   -2.5270319E-06
  2.0540001E-02   -3.0282886E-06
  2.0575000E-02   -3.4569402E-06
  2.0609999E-02   -3.8077089E-06
  2.0645000E-02   -4.0821947E-06
  2.0679999E-02   -4.2814145E-06
  2.0715000E-02   -4.3994946E-06
  2.0749999E-02   -4.4375984E-06
  2.0785000E-02   -4.4013523E-06
  2.0819999E-02   -4.2882393E-06
  2.0855000E-02   -4.0993114E-06
  2.0889999E-02   -3.8424650E-06
  2.0925000E-02   -3.5176688E-06
  2.0959999E-02   -3.1254770E-06
  2.0995000E-02   -2.6762441E-06
  2.1029999E-02   -2.1743010E-06
  2.1065000E-02   -1.6191331E-06
  2.1100000E-02   -1.0193770E-06
  2.1135001E-02   -3.8282568E-07
  2.1170000E-02    2.8823092E-07
  2.1205001E-02    9.8548117E-07
  2.1240000E-02    1.7013488E-06
  2.1275001E-02    2.4345197E-06
  2.1310000E-02    3.1768166E-06
  2.1345001E-02    3.9177471E-06
  2.1380000E-02    4.6558584E-06
  2.1415001E-02    5.3862677E-06
  2.1450000E-02    6.0984776E-06
  2.1485001E-02    6.7904816E-06
  2.1520000E-02    7.4594846E-06
  2.1555001E-02    8.0937480E-06
  2.1590000E-02    8.6900745E-06
  2.1624999E-02    9.2514747E-06
  2.1660000E-02    9.7696993E-06
  2.1694999E-02    1.0237894E-05
  2.1730000E-02    1.0659295E-05
  2.1764999E-02    1.1030110E-05
  2.1800000E-02    1.1344590E-05
  2.1834999E-02    1.1607432E-05
  2.1870000E-02    1.1817257E-05
  2.1904999E-02    1.1967121E-05
  2.1940000E-02    1.2062962E-05
  2.1974999E-02    1.2108628E-05
  2.2010000E-02    1.2097450E-05
  2.2045000E-02    1.2034231E-05
  2.2080000E-02    1.1926580E-05
  2.2115000E-02    1.1769089E-05
  2.2150001E-02    1.1565181E-05
  2.2185000E-02    1.1325577E-05
  2.2220001E-02    1.1046892E-05
  2.2255000E-02    1.0731061E-05
  2.2290001E-02    1.0390962E-05
  2.2325000E-02    1.0024769E-05
  2.2360001E-02    9.6318290E-06
  2.2395000E-02    9.2270175E-06
  2.2430001E-02    8.8117822E-06
  2.2465000E-02    8.3817540E-06
  2.2500001E-02    7.9507035E-06
  2.2535000E-02    7.5247845E-06
  2.2569999E-02    7.0978313E-06
  2.2605000E-02    6.6784914E-06
  2.2639999E-02    6.2752861E-06
  2.2675000E-02    5.8856067E-06
  2.2709999E-02    5.5160076E-06
  2.2745000E-02    5.1711781E-06
  2.2779999E-02    4.8458160E-06
  2.2815000E-02    4.5476904E-06
  2.2849999E-02    4.2856827E-06
  2.2885000E-02    4.0519294E-06
  2.2919999E-02    3.8462376E-06
  2.2955000E-02    3.6772863E-06
  2.2990000E-02    3.5420151E-06
  2.3025000E-02    3.4387731E-06
  2.3060000E-02    3.3722458E-06
  2.3095001E-02    3.3382535E-06
  2.3130000E-02    3.3336844E-06
  2.3165001E-02    3.3626930E-06
  2.3200000E-02    3.4228106E-06
  2.3235001E-02    3.5090011E-06
  2.3270000E-02    3.6210936E-06
  2.3305001E-02    3.7569862E-06
  2.3340000E-02    3.9133633E-06
  2.3375001E-02    4.0883156E-06
  2.3410000E-02    4.2789284E-06
  2.3445001E-02    4.4824619E-06
  2.3480000E-02    4.6947421E-06
  2.3514999E-02    4.9118275E-06
  2.3550000E-02    5.1339498E-06
  2.3584999E-02    5.3568242E-06
  2.3620000E-02    5.5733590E-06
  2.3654999E-02    5.7849825E-06
  2.3690000E-02    5.9900326E-06
  2.3724999E-02    6.1805099E-06
  2.3760000E-02    6.3577377E-06
  2.3794999E-02    6.5213558E-06
  2.3830000E-02    6.6625921E-06
  2.3864999E-02    6.7829765E-06
  2.3900000E-02    6.8841141E-06
  2.3934999E-02    6.9578964E-06
  2.3970000E-02    7.0078181E-06
  2.4005000E-02    7.0370702E-06
  2.4040001E-02    7.0341111E-06
  2.4075000E-02    7.0026003E-06
  2.4110001E-02    6.9529315E-06
  2.4145000E-02    6.8739878E-06
  2.4180001E-02    6.7643182E-06
  2.4215000E-02    6.6371786E-06
  2.4250001E-02    6.4853639E-06
  2.4285000E-02    6.3050006E-06
  2.4320001E-02    6.1112623E-06
  2.4355000E-02    5.9012650E-06
  2.4390001E-02    5.6677168E-06
  2.4425000E-02    5.4232592E-06
  2.4460001E-02    5.1687935E-06
  2.4495000E-02    4.8987922E-06
  2.4529999E-02    4.6267637E-06
  2.4565000E-02    4.3551281E-06
  2.4599999E-02    4.0744585E-06
  2.4635000E-02    3.7960974E-06
  2.4669999E-02    3.5274745E-06
  2.4705000E-02    3.2595765E-06
  2.4739999E-02    3.0002841E-06
  2.4775000E-02    2.7598114E-06
  2.4809999E-02    2.5292936E-06
  2.4845000E-02    2.3110738E-06
  2.4879999E-02    2.1167580E-06
  2.4915000E-02    1.9406039E-06
  2.4950000E-02    1.7818836E-06
  2.4985000E-02    1.6544637E-06
  2.5020000E-02    1.5560948E-06
  2.5055001E-02    1.4761570E-06
  2.5090000E-02    1.4218722E-06
  2.5125001E-02    1.4020451E-06
  2.5160000E-02    1.4125150E-06
  2.5195001E-02    1.4510453E-06
  2.5230000E-02    1.5195350E-06
  2.5265001E-02    1.6163666E-06
  2.5300000E-02    1.7418970E-06
  2.5335001E-02    1.8987242E-06
  2.5370000E-02    2.0854661E-06
  2.5405001E-02    2.3016955E-06
  2.5440000E-02    2.5481431E-06
  2.5474999E-02    2.8202378E-06
  2.5510000E-02    3.1167556E-06
  2.5544999E-02    3.4432669E-06
  2.5580000E-02    3.7971520E-06
  2.5614999E-02    4.1717140E-06
  2.5650000E-02    4.5713227E-06
  2.5684999E-02    4.9989444E-06
  2.5720000E-02    5.4465645E-06
  2.5754999E-02    5.9121217E-06
  2.5790000E-02    6.4024794E-06
  2.5824999E-02    6.9179387E-06
  2.5860000E-02    7.4527397E-06
  2.5895000E-02    8.0050449E-06
  2.5930000E-02    8.5784022E-06
  2.5965000E-02    9.1743468E-06
  2.6000001E-02    9.7896527E-06
  2.6035000E-02    1.0424475E-05
  2.6070001E-02    1.1082693E-05
  2.6105000E-02    1.1762217E-05
  2.6140001E-02    1.2461064E-05
  2.6175000E-02    1.3182746E-05
  2.6210001E-02    1.3925821E-05
  2.6245000E-02    1.4689738E-05
  2.6280001E-02    1.5479896E-05
  2.6315000E-02    1.6292553E-05
  2.6350001E-02    1.7124263E-05
  2.6385000E-02    1.7982504E-05
  2.6419999E-02    1.8864021E-05
  2.6455000E-02    1.9762954E-05
  2.6489999E-02    2.0687427E-05
  2.6525000E-02    2.1634823E-05
  2.6559999E-02    2.2595850E-05
  2.6595000E-02    2.3577908E-05
  2.6629999E-02    2.4578412E-05
  2.6665000E-02    2.5585301E-05
  2.6699999E-02    2.6604737E-05
  2.6735000E-02    2.7635222E-05
  2.6769999E-02    2.8662200E-05
  2.6805000E-02    2.9692303E-05
  2.6839999E-02    3.0723335E-05
  2.6875000E-02    3.1731761E-05
  2.6910000E-02    3.2721382E-05
  2.6945001E-02    3.3698878E-05
  2.6980000E-02    3.4642231E-05