 -4.8000002E-03    1.0000000E-24
 -4.7650002E-03    1.0000002E-24
 -4.7300002E-03    1.0000002E-24
 -4.6950001E-03    1.0000001E-24
 -4.6600001E-03    1.0000000E-24
 -4.6250001E-03    1.0000003E-24
 -4.5900000E-03    1.0000001E-24
 -4.5550000E-03    9.9999992E-25
 -4.5200000E-03    1.0000002E-24
 -4.4849999E-03    1.0000001E-24
 -4.4499999E-03    9.9999992E-25
 -4.4149999E-03    9.9999992E-25
 -4.3799998E-03    9.9999992E-25
 -4.3449998E-03    1.0000003E-24
 -4.3100002E-03    1.0000010E-24
 -4.2750002E-03    1.0000003E-24
 -4.2400002E-03    9.9999933E-25
 -4.2050001E-03    1.0000001E-24
 -4.1700001E-03    1.0000003E-24
 -4.1350001E-03    9.9999963E-25
 -4.1000000E-03    1.0000001E-24
 -4.0650000E-03    1.0000001E-24
 -4.0300000E-03    9.9999963E-25
 -3.9949999E-03    1.0000002E-24
 -3.9599999E-03    1.0000001E-24
 -3.9249999E-03    9.9999923E-25
 -3.8900001E-03    1.0000002E-24
 -3.8550000E-03    1.0000007E-24
 -3.8200000E-03    9.9999992E-25
 -3.7849999E-03    1.0000005E-24
 -3.7499999E-03    1.0000010E-24
 -3.7150001E-03    9.9999953E-25
 -3.6800001E-03    9.9999943E-25
 -3.6450000E-03    1.0000009E-24
 -3.6100000E-03    1.0000002E-24
 -3.5750000E-03    9.9999943E-25
 -3.5399999E-03    1.0000006E-24
 -3.5049999E-03    1.0000001E-24
 -3.4700001E-03    9.9999903E-25
 -3.4350001E-03    1.0000006E-24
 -3.4000000E-03    1.0000005E-24
 -3.3650000E-03    9.9999913E-25
 -3.3300000E-03    1.0000004E-24
 -3.2949999E-03    1.0000009E-24
 -3.2599999E-03    9.9999923E-25
 -3.2250001E-03    9.9999972E-25
 -3.1900001E-03    1.0000011E-24
 -3.1550000E-03    9.9999982E-25
 -3.1200000E-03    9.9999943E-25
 -3.0850000E-03    1.0000013E-24
 -3.0499999E-03    1.0000014E-24
 -3.0149999E-03    9.9999933E-25
 -2.9800001E-03    9.9999913E-25
 -2.9450001E-03    1.0000005E-24
 -2.9100000E-03    1.0000002E-24
 -2.8750000E-03    9.9999913E-25
 -2.8400000E-03    1.0000000E-24
 -2.8049999E-03    1.0000016E-24
 -2.7699999E-03    1.0000005E-24
 -2.7350001E-03    9.9999893E-25
 -2.7000001E-03    1.0000002E-24
 -2.6650000E-03    1.0000013E-24
 -2.6300000E-03    9.9999982E-25
 -2.5950000E-03    9.9999903E-25
 -2.5599999E-03    1.0000007E-24
 -2.5249999E-03    1.0000003E-24
 -2.4900001E-03    9.9999933E-25
 -2.4550001E-03    1.0000004E-24
 -2.4200000E-03    1.0000007E-24
 -2.3850000E-03    9.9999972E-25
 -2.3500000E-03    9.9999982E-25
 -2.3149999E-03    1.0000000E-24
 -2.2799999E-03    9.9999923E-25
 -2.2450001E-03    1.0000002E-24
 -2.2100001E-03    1.0000011E-24
 -2.1750000E-03    9.9999982E-25
 -2.1400000E-03    9.9999982E-25
 -2.1050000E-03    1.0000005E-24
 -2.0699999E-03    1.0000001E-24
 -2.0349999E-03    9.9999982E-25
 -2.0000001E-03    1.0000005E-24
 -1.9650001E-03    1.0000007E-24
 -1.9300000E-03    1.0000002E-24
 -1.8950000E-03    9.9999972E-25
 -1.8600000E-03    9.9999972E-25
 -1.8250000E-03    1.0000010E-24
 -1.7900000E-03    1.0000007E-24
 -1.7550000E-03    9.9999903E-25
 -1.7199999E-03    9.9999982E-25
 -1.6850000E-03    1.0000002E-24
 -1.6500000E-03    9.9999874E-25
 -1.6150000E-03    9.9999982E-25
 -1.5800000E-03    1.0000015E-24
 -1.5450000E-03    1.0000001E-24
 -1.5100000E-03    9.9999972E-25
 -1.4750001E-03    1.0000009E-24
 -1.4400000E-03    9.9999943E-25
 -1.4050000E-03    9.9999824E-25
 -1.3700000E-03    1.0000013E-24
 -1.3350000E-03    1.0000018E-24
 -1.3000000E-03    9.9999874E-25
 -1.2650000E-03    9.9999854E-25
 -1.2300001E-03    1.0000007E-24
 -1.1950000E-03    1.0000005E-24
 -1.1600000E-03    9.9999953E-25
 -1.1250000E-03    1.0000004E-24
 -1.0900000E-03    1.0000011E-24
 -1.0550000E-03    1.0000002E-24
 -1.0200000E-03    9.9999963E-25
 -9.8500005E-04    9.9999992E-25
 -9.5000002E-04    9.9999992E-25
 -9.1499998E-04    9.9999982E-25
 -8.8000001E-04    1.0000007E-24
 -8.4499997E-04    1.0000009E-24
 -8.1000000E-04    9.9999953E-25
 -7.7500002E-04    9.9999903E-25
 -7.3999999E-04    9.9999972E-25
 -7.0500001E-04    1.0000001E-24
 -6.6999998E-04    1.0000006E-24
 -6.3500000E-04    9.9999972E-25
 -6.0000003E-04    9.9999953E-25
 -5.6499999E-04    1.0000022E-24
 -5.3000002E-04    9.9999982E-25
 -4.9499999E-04    9.9999361E-25
 -4.6000001E-04    1.0000043E-24
 -4.2500001E-04    1.0000174E-24
 -3.9000000E-04    9.9998335E-25
 -3.5500000E-04    9.9997044E-25
 -3.1999999E-04    1.0000585E-24
 -2.8499999E-04    1.0000270E-24
 -2.5000001E-04    9.9984402E-25
 -2.1499999E-04    1.0000527E-24
 -1.8000000E-04    1.0003192E-24
 -1.4500000E-04    9.9963783E-25
 -1.1000000E-04    9.9954830E-25
 -7.5000004E-05    1.0011668E-24
 -3.9999999E-05    1.0001464E-24
 -4.9999999E-06    9.9724995E-25
  2.9999999E-05    1.0016556E-24
  6.5000000E-05    1.0049814E-24
  9.9999997E-05    9.9295549E-25
  1.3499999E-04    9.9375579E-25
  1.7000000E-04    1.0191508E-24
  2.0500000E-04    1.0014736E-24
  2.3999999E-04    9.5912894E-25
  2.7500000E-04    1.0205439E-24
  3.1000000E-04    1.0709647E-24
  3.4500001E-04    9.2068814E-25
  3.8000001E-04    9.0389024E-25
  4.1499999E-04    1.2012491E-24
  4.4999999E-04    1.0787519E-24
  4.8500000E-04    5.8999745E-25
  5.2000000E-04    1.0563885E-24
  5.5499998E-04    1.7030850E-24
  5.9000001E-04    5.7055928E-25
  6.2499999E-04   -1.1853496E-26
  6.6000002E-04    2.1933646E-24
  6.9500000E-04    2.1483846E-24
  7.3000003E-04   -1.4876744E-24
  7.6500000E-04    2.4743946E-25
  7.9999998E-04    5.3462125E-24
  8.3500001E-04    2.6183637E-25
  8.6999999E-04   -5.5570167E-24
  9.0500002E-04    5.0704934E-24
  9.4000000E-04    9.4840037E-24
  9.7499997E-04   -9.0877967E-24
  1.0100000E-03   -7.8653400E-24
  1.0450000E-03    2.0560314E-23
  1.0800000E-03    6.5956664E-24
  1.1150000E-03   -3.1916476E-23
  1.1500000E-03    5.5161280E-24
  1.1849999E-03    5.0826419E-23
  1.2200000E-03   -2.5022763E-23
  1.2550000E-03   -6.7527598E-23
  1.2900000E-03    6.6113057E-23
  1.3250000E-03    8.5716667E-23
  1.3600000E-03   -1.2874693E-22
  1.3950000E-03   -8.8812706E-23
  1.4299999E-03    2.3038146E-22
  1.4650000E-03    6.9458023E-23
  1.5000000E-03   -3.7293996E-22
  1.5350000E-03    5.7510090E-24
  1.5700000E-03    5.7273518E-22
  1.6050000E-03   -1.6821431E-22
  1.6400000E-03   -8.2527326E-22
  1.6749999E-03    4.8389556E-22
  1.7100000E-03    1.1331414E-21
  1.7450000E-03   -1.0265650E-21
  1.7800000E-03   -1.4694137E-21
  1.8150000E-03    1.9157043E-21
  1.8500000E-03    1.8051518E-21
  1.8850000E-03   -3.2904326E-21
  1.9200000E-03   -2.0739698E-21
  1.9550000E-03    5.3451535E-21
  1.9900000E-03    2.2036176E-21
  2.0250001E-03   -8.2940721E-21
  2.0600001E-03   -2.0903333E-21
  2.0949999E-03    1.2384479E-20
  2.1299999E-03    1.6492886E-21
  2.1650000E-03   -1.7818742E-20
  2.2000000E-03   -8.1780672E-22
  2.2350000E-03    2.4695818E-20
  2.2700001E-03   -3.6075579E-22
  2.3050001E-03   -3.2818565E-20
  2.3399999E-03    1.7127500E-21
  2.3749999E-03    4.1457423E-20
  2.4100000E-03   -2.8713747E-21
  2.4450000E-03   -4.8891954E-20
  2.4800000E-03    3.3576877E-21
  2.5150001E-03    5.1802166E-20
  2.5500001E-03   -2.7661887E-21
  2.5849999E-03   -4.4343285E-20
  2.6199999E-03    1.3205044E-21
  2.6550000E-03    1.7048415E-20
  2.6900000E-03   -8.7380514E-22
  2.7250000E-03    4.4454719E-20
  2.7600001E-03    6.7575773E-21
  2.7950001E-03   -1.6050955E-19
  2.8299999E-03   -3.0684908E-20
  2.8649999E-03    3.5792247E-19
  2.9000000E-03    9.5125674E-20
  2.9350000E-03   -6.6896345E-19
  2.9700000E-03   -2.3909604E-19
  3.0050001E-03    1.1278566E-18
  3.0400001E-03    5.2509860E-19
  3.0749999E-03   -1.7630188E-18
  3.1099999E-03   -1.0459102E-18
  3.1450000E-03    2.5832981E-18
  3.1800000E-03    1.9289465E-18
  3.2150000E-03   -3.5562488E-18
  3.2500001E-03   -3.3343063E-18
  3.2850001E-03    4.5773735E-18
  3.3199999E-03    5.4406754E-18
  3.3549999E-03   -5.4312861E-18
  3.3900000E-03   -8.4111406E-18
  3.4250000E-03    5.7493296E-18
  3.4600000E-03    1.2329556E-17
  3.4950001E-03   -4.9737795E-18
  3.5300001E-03   -1.7098022E-17
  3.5649999E-03    2.3458460E-18
  3.5999999E-03    2.2290031E-17
  3.6350000E-03    3.0568149E-18
  3.6700000E-03   -2.6962111E-17
  3.7050000E-03   -1.2199056E-17
  3.7400001E-03    2.9441214E-17
  3.7750001E-03    2.5843063E-17
  3.8099999E-03   -2.7131478E-17
  3.8449999E-03   -4.4140353E-17
  3.8800000E-03    1.6411980E-17
  3.9149998E-03    6.6040254E-17
  3.9499998E-03    7.2685345E-18
  3.9849998E-03   -8.8534703E-17
  4.0199999E-03   -4.8968639E-17
  4.0549999E-03    1.0581547E-16
  4.0899999E-03    1.1335797E-16
  4.1250000E-03   -1.0851015E-16
  4.1600000E-03   -2.0322116E-16
  4.1950000E-03    8.3271558E-17
  4.2300001E-03    3.1729481E-16
  4.2650001E-03   -1.3122007E-17
  4.3000001E-03   -4.4755405E-16
  4.3350002E-03   -1.2098865E-16
  4.3700002E-03    5.7629649E-16
  4.4049998E-03    3.3696665E-16
  4.4399998E-03   -6.7367347E-16
  4.4749998E-03   -6.4641632E-16
  4.5099999E-03    6.9656967E-16
  4.5449999E-03    1.0474858E-15
  4.5799999E-03   -5.9004649E-16
  4.6150000E-03   -1.5161588E-15
  4.6500000E-03    2.9284888E-16
  4.6850001E-03    1.9973494E-15
  4.7200001E-03    2.5185024E-16
  4.7550001E-03   -2.3981210E-15
  4.7900002E-03   -1.0800354E-15
  4.8250002E-03    2.5859624E-15
  4.8600002E-03    2.1857001E-15
  4.8949998E-03   -2.3949880E-15
  4.9299998E-03   -3.4966380E-15
  4.9649999E-03    1.6436846E-15
  4.9999999E-03    4.8508683E-15
  5.0349999E-03   -1.6714749E-16
  5.0700000E-03   -5.9809344E-15
  5.1050000E-03   -2.1356833E-15
  5.1400000E-03    6.5150166E-15
  5.1750001E-03    5.2455048E-15
  5.2100001E-03   -6.0017303E-15
  5.2450001E-03   -8.9639735E-15
  5.2800002E-03    3.9630033E-15
  5.3150002E-03    1.2862546E-14
  5.3500002E-03    1.9946342E-17
  5.3849998E-03   -1.6253764E-14
  5.4199998E-03   -6.1867422E-15
  5.4549999E-03    1.8209960E-14
  5.4899999E-03    1.4461570E-14
  5.5249999E-03   -1.7646600E-14
  5.5600000E-03   -2.4330696E-14
  5.5950000E-03    1.3466473E-14
  5.6300000E-03    3.4755564E-14
  5.6650001E-03   -4.7619206E-15
  5.7000001E-03   -4.4140896E-14
  5.7350001E-03   -8.9221944E-15
  5.7700002E-03    5.0409048E-14
  5.8050002E-03    2.7295965E-14
  5.8400002E-03   -5.1232991E-14
  5.8749998E-03   -4.9104872E-14
  5.9099998E-03    4.4392641E-14
  5.9449999E-03    7.2041352E-14
  5.9799999E-03   -2.8178223E-14
  6.0149999E-03   -9.2756328E-14
  6.0500000E-03    1.8763902E-15
  6.0850000E-03    1.0704256E-13
  6.1200000E-03    3.3659026E-14
  6.1550001E-03   -1.1039689E-13
  6.1900001E-03   -7.5653378E-14
  6.2250001E-03    9.8861816E-14
  6.2600002E-03    1.1955966E-13
  6.2950002E-03   -6.9666434E-14
  6.3299998E-03   -1.5934590E-13
  6.3649998E-03    2.1700215E-14
  6.3999998E-03    1.8763172E-13
  6.4349999E-03    4.3551900E-14
  6.4699999E-03   -1.9648383E-13
  6.5049999E-03   -1.2111051E-13
  6.5400000E-03    1.7938450E-13
  6.5750000E-03    2.0329993E-13
  6.6100000E-03   -1.3240082E-13
  6.6450001E-03   -2.8144723E-13
  6.6800001E-03    5.3232914E-14
  6.7150001E-03    3.4532183E-13
  6.7500002E-03    5.8448113E-14
  6.7850002E-03   -3.8184064E-13
  6.8199998E-03   -1.9733997E-13
  6.8549998E-03    3.7863096E-13
  6.8899998E-03    3.5213640E-13
  6.9249999E-03   -3.2911537E-13
  6.9599999E-03   -5.1216090E-13
  6.9949999E-03    2.2830715E-13
  7.0300000E-03    6.6812056E-13
  7.0650000E-03   -6.5865092E-14
  7.1000000E-03   -8.0035349E-13
  7.1350001E-03   -1.6398100E-13
  7.1700001E-03    8.7785356E-13
  7.2050001E-03    4.4759571E-13
  7.2400002E-03   -8.7896503E-13
  7.2750002E-03   -7.6571833E-13
  7.3099998E-03    7.9279763E-13
  7.3449998E-03    1.1120797E-12
  7.3799998E-03   -5.8655126E-13
  7.4149999E-03   -1.4599866E-12
  7.4499999E-03    2.1364739E-13
  7.4850000E-03    1.7245300E-12
  7.5200000E-03    3.1538877E-13
  7.5550000E-03   -1.8187414E-12
  7.5900001E-03   -9.2961305E-13
  7.6250001E-03    1.7195997E-12
  7.6600001E-03    1.5914640E-12
  7.6950002E-03   -1.3894548E-12
  7.7300002E-03   -2.2719040E-12
  7.7650002E-03    7.1093533E-13
  7.7999998E-03    2.7889919E-12
  7.8349998E-03    3.2707872E-13
  7.8699999E-03   -2.8797422E-12
  7.9049999E-03   -1.4901029E-12
  7.9399999E-03    2.4985222E-12
  7.9750000E-03    2.5749390E-12
  8.0100000E-03   -1.7353303E-12
  8.0450000E-03   -3.5849134E-12
  8.0800001E-03    4.3624268E-13
  8.1150001E-03    4.2860190E-12
  8.1500001E-03    1.5179574E-12
  8.1850002E-03   -4.0637550E-12
  8.2200002E-03   -3.5669785E-12
  8.2550002E-03    2.7819331E-12
  8.2900003E-03    4.9846494E-12
  8.3250003E-03   -1.0480861E-12
  8.3600003E-03   -5.8816216E-12
  8.3950004E-03   -1.0233495E-12
  8.4300004E-03    6.3921203E-12
  8.4650004E-03    3.9298512E-12
  8.5000005E-03   -5.4579297E-12
  8.5349996E-03   -6.8261924E-12
  8.5699996E-03    2.5577465E-12
  8.6049996E-03    7.8037004E-12
  8.6399997E-03    4.7211589E-13
  8.6749997E-03   -7.1568289E-12
  8.7099997E-03   -2.3368061E-12
  8.7449998E-03    6.7513131E-12
  8.7799998E-03    4.6934548E-12
  8.8149998E-03   -5.4408084E-12
  8.8499999E-03   -7.5748505E-12
  8.8849999E-03    1.0316551E-12
  8.9199999E-03    6.9255587E-12
  8.9550000E-03    3.0909602E-12
  8.9900000E-03   -2.4191077E-12
  9.0250000E-03   -2.3346960E-12
  9.0600001E-03    1.4460038E-13
  9.0950001E-03    5.1504385E-13
  9.1300001E-03   -5.7946914E-13
  9.1650002E-03   -2.1672620E-12
  9.2000002E-03   -3.3675595E-12
  9.2350002E-03    2.2318879E-13
  9.2700003E-03    8.6549153E-12
  9.3050003E-03    1.0063670E-11
  9.3400003E-03   -3.1126885E-12
  9.3750004E-03   -1.5588357E-11
  9.4100004E-03   -8.2215667E-12
  9.4450004E-03    8.7549959E-12
  9.4799995E-03    8.7196934E-12
  9.5149996E-03   -6.2205015E-12
  9.5499996E-03   -6.4231012E-12
  9.5849996E-03    1.3207871E-11
  9.6199997E-03    1.9470994E-11
  9.6549997E-03   -4.9597258E-12
  9.6899997E-03   -2.8934799E-11
  9.7249998E-03   -1.9130001E-11
  9.7599998E-03    9.8407012E-12
  9.7949998E-03    2.0821348E-11
  9.8299999E-03    8.5481327E-12
  9.8649999E-03   -1.6036600E-12
  9.8999999E-03    3.0902553E-12
  9.9350000E-03    7.9462817E-12
  9.9700000E-03   -3.4621299E-12
  1.0005000E-02   -2.5263456E-11
  1.0040000E-02   -3.1938542E-11
  1.0075000E-02   -4.9366674E-12
  1.0110000E-02    3.7076928E-11
  1.0145000E-02    4.7212335E-11
  1.0180000E-02    9.9718098E-12
  1.0215000E-02   -2.7423492E-11
  1.0250000E-02   -1.9912069E-11
  1.0285000E-02    2.3982318E-12
  1.0320000E-02   -1.5264722E-11
  1.0355000E-02   -4.7332541E-11
  1.0390000E-02   -1.7519940E-11
  1.0425000E-02    6.4014995E-11
  1.0460000E-02    9.1399242E-11
  1.0495000E-02    2.1285099E-11
  1.0530000E-02   -5.6568986E-11
  1.0565000E-02   -5.8159207E-11
  1.0600000E-02   -2.2446770E-11
  1.0635000E-02   -1.9729137E-11
  1.0670000E-02   -2.6838615E-11
  1.0705000E-02    1.5585229E-11
  1.0740000E-02    8.2058575E-11
  1.0775000E-02    9.3342896E-11
  1.0810000E-02    3.2459826E-11
  1.0845000E-02   -4.8263855E-11
  1.0880000E-02   -1.0271564E-10
  1.0915000E-02   -1.0761896E-10
  1.0950000E-02   -4.6802454E-11
  1.0985000E-02    5.2052817E-11
  1.1020000E-02    1.0977853E-10
  1.1055000E-02    9.0946403E-11
  1.1090000E-02    5.1546396E-11
  1.1125000E-02    2.7825018E-11
  1.1160000E-02   -3.6437686E-11
  1.1195000E-02   -1.5656040E-10
  1.1230000E-02   -2.0000737E-10
  1.1265000E-02   -5.7626365E-11
  1.1300000E-02    1.5082041E-10
  1.1335000E-02    2.1139060E-10
  1.1370000E-02    1.1072913E-10
  1.1405000E-02    1.5134127E-11
  1.1440000E-02   -1.5073671E-11
  1.1475000E-02   -8.0258702E-11
  1.1510000E-02   -1.9642282E-10
  1.1545000E-02   -2.1183565E-10
  1.1580000E-02   -4.2407522E-11
  1.1615000E-02    1.7830672E-10
  1.1650000E-02    2.6869798E-10
  1.1685000E-02    1.9420951E-10
  1.1720000E-02    3.5409772E-11
  1.1755000E-02   -1.1895133E-10
  1.1790000E-02   -1.9908536E-10
  1.1825000E-02   -1.8273381E-10
  1.1860000E-02   -1.2206779E-10
  1.1895000E-02   -5.0309538E-11
  1.1930000E-02    9.2566801E-11
  1.1965000E-02    2.9999839E-10
  1.2000000E-02    3.5960135E-10
  1.2035000E-02    1.0892933E-10
  1.2070000E-02   -2.4077193E-10
  1.2105000E-02   -3.3010239E-10
  1.2140000E-02   -1.6324034E-10
  1.2175000E-02   -5.4740469E-11
  1.2210000E-02   -7.2716562E-11
  1.2245000E-02    4.7798560E-11
  1.2280000E-02    3.4891365E-10
  1.2315000E-02    4.5724624E-10
  1.2350000E-02    1.5707720E-10
  1.2385000E-02   -2.3551339E-10
  1.2420000E-02   -3.3785419E-10
  1.2455000E-02   -2.1252901E-10
  1.2490000E-02   -1.2510371E-10
  1.2525000E-02   -6.9465704E-11
  1.2560000E-02    1.2891102E-10
  1.2595000E-02    4.0824652E-10
  1.2630000E-02    4.9380344E-10
  1.2665000E-02    2.6893621E-10
  1.2700000E-02   -9.6372910E-11
  1.2735000E-02   -3.4718714E-10
  1.2770000E-02   -3.4117661E-10
  1.2805000E-02   -1.1490904E-10
  1.2840000E-02    1.5306177E-10
  1.2875000E-02    3.1175243E-10
  1.2910000E-02    3.8952841E-10
  1.2945000E-02    4.6862619E-10
  1.2980000E-02    4.5578269E-10
  1.3015000E-02    2.0546186E-10
  1.3050000E-02   -1.3091643E-10
  1.3085000E-02   -1.8459870E-10
  1.3120000E-02    1.1570840E-10
  1.3155000E-02    4.2181120E-10
  1.3190000E-02    4.9480015E-10
  1.3225000E-02    5.3286192E-10
  1.3260000E-02    7.5875622E-10
  1.3295000E-02    9.7251462E-10
  1.3330000E-02    8.4582602E-10
  1.3365000E-02    5.0241156E-10
  1.3400000E-02    4.1296230E-10
  1.3435000E-02    7.2955531E-10
  1.3470000E-02    1.1165843E-09
  1.3505000E-02    1.3013695E-09
  1.3540000E-02    1.4125102E-09
  1.3575000E-02    1.6590597E-09
  1.3610000E-02    1.9879540E-09
  1.3645000E-02    2.2146642E-09
  1.3680000E-02    2.3064310E-09
  1.3715000E-02    2.3815694E-09
  1.3750000E-02    2.5380069E-09
  1.3785000E-02    2.8445997E-09
  1.3820000E-02    3.3681045E-09
  1.3855000E-02    4.0112469E-09
  1.3890000E-02    4.5338489E-09
  1.3925000E-02    4.9190572E-09
  1.3960000E-02    5.4107754E-09
  1.3995000E-02    6.0876548E-09
  1.4030000E-02    6.7840253E-09
  1.4065000E-02    7.4588282E-09
  1.4100000E-02    8.2505727E-09
  1.4135000E-02    9.1379464E-09
  1.4170000E-02    9.9113562E-09
  1.4205000E-02    1.0648658E-08
  1.4240000E-02    1.1834909E-08
  1.4275000E-02    1.3630711E-08
  1.4310000E-02    1.5499117E-08
  1.4345000E-02    1.7032583E-08
  1.4380000E-02    1.8496149E-08
  1.4415000E-02    2.0148427E-08
  1.4450000E-02    2.1816165E-08
  1.4485000E-02    2.3437256E-08
  1.4520000E-02    2.5399780E-08
  1.4555000E-02    2.8116723E-08
  1.4590000E-02    3.1505017E-08
  1.4625000E-02    3.5113658E-08
  1.4660000E-02    3.8676522E-08
  1.4695000E-02    4.2077978E-08
  1.4730000E-02    4.5134087E-08
  1.4765000E-02    4.8194128E-08
  1.4800000E-02    5.2106039E-08
  1.4835000E-02    5.6943655E-08
  1.4870000E-02    6.2100142E-08
  1.4905000E-02    6.7643057E-08
  1.4940000E-02    7.4041004E-08
  1.4975000E-02    8.1024311E-08
  1.5010000E-02    8.7798924E-08
  1.5045000E-02    9.4081123E-08
  1.5080000E-02    1.0065321E-07
  1.5115000E-02    1.0840314E-07
  1.5150000E-02    1.1691735E-07
  1.5185000E-02    1.2573176E-07
  1.5220000E-02    1.3584661E-07
  1.5255000E-02    1.4748427E-07
  1.5290000E-02    1.5905259E-07
  1.5325000E-02    1.7025016E-07
  1.5360000E-02    1.8245231E-07
  1.5395000E-02    1.9589079E-07
  1.5430000E-02    2.0973583E-07
  1.5465000E-02    2.2362657E-07
  1.5500000E-02    2.3810537E-07
  1.5535000E-02    2.5451661E-07
  1.5570000E-02    2.7304736E-07
  1.5605000E-02    2.9225851E-07
  1.5640000E-02    3.1217627E-07
  1.5675001E-02    3.3334445E-07
  1.5710000E-02    3.5412489E-07
  1.5745001E-02    3.7473509E-07
  1.5780000E-02    3.9814014E-07
  1.5814999E-02    4.2378821E-07
  1.5850000E-02    4.4915811E-07
  1.5884999E-02    4.7538504E-07
  1.5920000E-02    5.0412956E-07
  1.5954999E-02    5.3496433E-07
  1.5990000E-02    5.6726122E-07
  1.6024999E-02    5.9968534E-07
  1.6060000E-02    6.3207602E-07
  1.6094999E-02    6.6683111E-07
  1.6130000E-02    7.0316378E-07
  1.6164999E-02    7.3916175E-07
  1.6200000E-02    7.7823245E-07
  1.6235000E-02    8.2116702E-07
  1.6270000E-02    8.6309632E-07
  1.6305000E-02    9.0518824E-07
  1.6340001E-02    9.5160658E-07
  1.6375000E-02    9.9969088E-07
  1.6410001E-02    1.0474874E-06
  1.6445000E-02    1.0967149E-06
  1.6480001E-02    1.1464914E-06
  1.6515000E-02    1.1977990E-06
  1.6550001E-02    1.2527764E-06
  1.6585000E-02    1.3081664E-06
  1.6620001E-02    1.3641230E-06
  1.6655000E-02    1.4244971E-06
  1.6690001E-02    1.4849610E-06
  1.6725000E-02    1.5436365E-06
  1.6759999E-02    1.6073591E-06
  1.6795000E-02    1.6734034E-06
  1.6829999E-02    1.7353935E-06
  1.6865000E-02    1.7994502E-06
  1.6899999E-02    1.8679891E-06
  1.6935000E-02    1.9355534E-06
  1.6969999E-02    2.0047373E-06
  1.7005000E-02    2.0766170E-06
  1.7039999E-02    2.1466396E-06
  1.7075000E-02    2.2190088E-06
  1.7109999E-02    2.2947236E-06
  1.7145000E-02    2.3665941E-06
  1.7180000E-02    2.4391604E-06
  1.7215000E-02    2.5159231E-06
  1.7250000E-02    2.5879951E-06
  1.7285001E-02    2.6600021E-06
  1.7320000E-02    2.7405160E-06
  1.7355001E-02    2.8183524E-06
  1.7390000E-02    2.8906647E-06
  1.7425001E-02    2.9683570E-06
  1.7460000E-02    3.0463902E-06
  1.7495001E-02    3.1199168E-06
  1.7530000E-02    3.1961220E-06
  1.7565001E-02    3.2707906E-06
  1.7600000E-02    3.3423876E-06
  1.7635001E-02    3.4202717E-06
  1.7670000E-02    3.4960874E-06
  1.7704999E-02    3.5636201E-06
  1.7740000E-02    3.6378058E-06
  1.7774999E-02    3.7147688E-06
  1.7810000E-02    3.7811906E-06
  1.7844999E-02    3.8495450E-06
  1.7880000E-02    3.9223532E-06
  1.7914999E-02    3.9862198E-06
  1.7950000E-02    4.0506015E-06
  1.7984999E-02    4.1202197E-06
  1.8020000E-02    4.1812855E-06
  1.8054999E-02    4.2404927E-06
  1.8090000E-02    4.3036794E-06
  1.8124999E-02    4.3591112E-06
  1.8160000E-02    4.4160506E-06
  1.8195000E-02    4.4797425E-06
  1.8230001E-02    4.5294669E-06
  1.8265000E-02    4.5729516E-06
  1.8300001E-02    4.6283458E-06
  1.8335000E-02    4.6774194E-06
  1.8370001E-02    4.7170588E-06
  1.8405000E-02    4.7642457E-06
  1.8440001E-02    4.8060315E-06
  1.8475000E-02    4.8391630E-06
  1.8510001E-02    4.8805409E-06
  1.8545000E-02    4.9158389E-06
  1.8580001E-02    4.9392170E-06
  1.8615000E-02    4.9720766E-06
  1.8650001E-02    5.0018916E-06
  1.8685000E-02    5.0168214E-06
  1.8719999E-02    5.0399381E-06
  1.8755000E-02    5.0631907E-06
  1.8789999E-02    5.0704757E-06
  1.8825000E-02    5.0855010E-06
  1.8859999E-02    5.1045258E-06
  1.8895000E-02    5.1054767E-06
  1.8929999E-02    5.1096554E-06
  1.8965000E-02    5.1203792E-06
  1.8999999E-02    5.1156667E-06
  1.9035000E-02    5.1145853E-06
  1.9069999E-02    5.1215839E-06
  1.9105000E-02    5.1094598E-06
  1.9140000E-02    5.0971894E-06
  1.9175000E-02    5.0996296E-06
  1.9210000E-02    5.0879166E-06
  1.9245001E-02    5.0723211E-06
  1.9280000E-02    5.0710819E-06
  1.9315001E-02    5.0572130E-06
  1.9350000E-02    5.0378558E-06
  1.9385001E-02    5.0360472E-06
  1.9420000E-02    5.0243812E-06
  1.9455001E-02    5.0024792E-06
  1.9490000E-02    4.9989480E-06
  1.9525001E-02    4.9929622E-06
  1.9560000E-02    4.9771143E-06
  1.9595001E-02    4.9770756E-06
  1.9630000E-02    4.9746614E-06
  1.9664999E-02    4.9608070E-06
  1.9700000E-02    4.9650284E-06
  1.9734999E-02    4.9726091E-06
  1.9770000E-02    4.9655982E-06
  1.9804999E-02    4.9702198E-06
  1.9840000E-02    4.9794758E-06
  1.9874999E-02    4.9774790E-06
  1.9910000E-02    4.9902524E-06
  1.9944999E-02    5.0100225E-06
  1.9980000E-02    5.0119306E-06
  2.0014999E-02    5.0216759E-06
  2.0050000E-02    5.0447461E-06
  2.0085000E-02    5.0568783E-06
  2.0120000E-02    5.0729327E-06
  2.0155000E-02    5.0963140E-06
  2.0190001E-02    5.1044999E-06
  2.0225000E-02    5.1150760E-06
  2.0260001E-02    5.1380507E-06
  2.0295000E-02    5.1475336E-06
  2.0330001E-02    5.1516322E-06
  2.0365000E-02    5.1648040E-06
  2.0400001E-02    5.1688316E-06
  2.0435000E-02    5.1679544E-06
  2.0470001E-02    5.1732413E-06
  2.0505000E-02    5.1677057E-06
  2.0540001E-02    5.1549155E-06
  2.0575000E-02    5.1477000E-06
  2.0609999E-02    5.1320867E-06
  2.0645000E-02    5.1092879E-06
  2.0679999E-02    5.0892495E-06
  2.0715000E-02    5.0594904E-06
  2.0749999E-02    5.0264607E-06
  2.0785000E-02    5.0043059E-06
  2.0819999E-02    4.9732348E-06
  2.0855000E-02    4.9292676E-06
  2.0889999E-02    4.8946904E-06
  2.0925000E-02    4.8626166E-06
  2.0959999E-02    4.8221118E-06
  2.0995000E-02    4.7863564E-06
  2.1029999E-02    4.7538374E-06
  2.1065000E-02    4.7160725E-06
  2.1100000E-02    4.6837549E-06
  2.1135001E-02    4.6608525E-06
  2.1170000E-02    4.6410637E-06
  2.1205001E-02    4.6265773E-06
  2.1240000E-02    4.6183741E-06
  2.1275001E-02    4.6164496E-06
  2.1310000E-02    4.6262007E-06
  2.1345001E-02    4.6449809E-06
  2.1380000E-02    4.6678183E-06
  2.1415001E-02    4.7009444E-06
  2.1450000E-02    4.7468598E-06
  2.1485001E-02    4.7994890E-06
  2.1520000E-02    4.8608949E-06
  2.1555001E-02    4.9361379E-06
  2.1590000E-02    5.0196954E-06
  2.1624999E-02    5.1089892E-06
  2.1660000E-02    5.2118953E-06
  2.1694999E-02    5.3259246E-06
  2.1730000E-02    5.4413522E-06
  2.1764999E-02    5.5646497E-06
  2.1800000E-02    5.6995777E-06
  2.1834999E-02    5.8338223E-06
  2.1870000E-02    5.9717713E-06
  2.1904999E-02    6.1230148E-06
  2.1940000E-02    6.2714380E-06
  2.1974999E-02    6.4146011E-06
  2.2010000E-02    6.5703875E-06
  2.2045000E-02    6.7286337E-06
  2.2080000E-02    6.8794870E-06
  2.2115000E-02    7.0385777E-06
  2.2150001E-02    7.1990330E-06
  2.2185000E-02    7.3495135E-06
  2.2220001E-02    7.5071798E-06
  2.2255000E-02    7.6693304E-06
  2.2290001E-02    7.8227467E-06
  2.2325000E-02    7.9824276E-06
  2.2360001E-02    8.1471753E-06
  2.2395000E-02    8.3067553E-06
  2.2430001E-02    8.4814465E-06
  2.2465000E-02    8.6696791E-06
  2.2500001E-02    8.8538454E-06
  2.2535000E-02    9.0558060E-06
  2.2569999E-02    9.2808114E-06
  2.2605000E-02    9.5088017E-06
  2.2639999E-02    9.7609036E-06
  2.2675000E-02    1.0047827E-05
  2.2709999E-02    1.0347152E-05
  2.2745000E-02    1.0677282E-05
  2.2779999E-02    1.1053826E-05
  2.2815000E-02    1.1453129E-05
  2.2849999E-02    1.1890884E-05
  2.2885000E-02    1.2389524E-05
  2.2919999E-02    1.2925555E-05
  2.2955000E-02    1.3506672E-05
  2.2990000E-02    1.4158074E-05
  2.3025000E-02    1.4860466E-05
  2.3060000E-02    1.5615055E-05
  2.3095001E-02    1.6446133E-05
  2.3130000E-02    1.7341565E-05
  2.3165001E-02    1.8301889E-05
  2.3200000E-02    1.9345329E-05
  2.3235001E-02    2.0456877E-05
  2.3270000E-02    2.1636555E-05
  2.3305001E-02    2.2904591E-05
  2.3340000E-02    2.4247251E-05
  2.3375001E-02    2.5660769E-05
  2.3410000E-02    2.7161897E-05
  2.3445001E-02    2.8736529E-05
  2.3480000E-02    3.0380721E-05
  2.3514999E-02    3.2112319E-05
  2.3550000E-02    3.3915749E-05
  2.3584999E-02    3.5779929E-05
  2.3620000E-02    3.7719143E-05
  2.3654999E-02    3.9718463E-05
  2.3690000E-02    4.1763364E-05
  2.3724999E-02    4.3867385E-05
  2.3760000E-02    4.6018307E-05
  2.3794999E-02    4.8192866E-05
  2.3830000E-02    5.0395509E-05
  2.3864999E-02    5.2622185E-05
  2.3900000E-02    5.4851054E-05
  2.3934999E-02    5.7066660E-05
  2.3970000E-02    5.9258109E-05
  2.4005000E-02    6.1418730E-05
  2.4040001E-02    6.3534055E-05
  2.4075000E-02    6.5575252E-05
  2.4110001E-02    6.7525500E-05
  2.4145000E-02    6.9369547E-05
  2.4180001E-02    7.1076902E-05
  2.4215000E-02    7.2629038E-05
  2.4250001E-02    7.4004551E-05
  2.4285000E-02    7.5160104E-05
  2.4320001E-02    7.6068463E-05
  2.4355000E-02    7.6705284E-05
  2.4390001E-02    7.7023986E-05
  2.4425000E-02    7.6993776E-05
  2.4460001E-02    7.6582743E-05
  2.4495000E-02    7.5730553E-05
  2.4529999E-02    7.4396892E-05
  2.4565000E-02    7.2545052E-05
  2.4599999E-02    7.0105685E-05
  2.4635000E-02    6.7030109E-05
  2.4669999E-02    6.3276217E-05
  2.4705000E-02    5.8764705E-05
  2.4739999E-02    5.3435710E-05
  2.4775000E-02    4.7238325E-05
  2.4809999E-02    4.0082359E-05
  2.4845000E-02    3.1902975E-05
  2.4879999E-02    2.2650584E-05
  2.4915000E-02    1.2223134E-05
  2.4950000E-02    5.3815319E-07
  2.4985000E-02   -1.2456125E-05
  2.5020000E-02   -2.6861344E-05
  2.5055001E-02   -4.2765107E-05
  2.5090000E-02   -6.0214523E-05
  2.5125001E-02   -7.9308978E-05
  2.5160000E-02   -1.0014732E-04
  2.5195001E-02   -1.2277586E-04
  2.5230000E-02   -1.4727986E-04
  2.5265001E-02   -1.7375284E-04
  2.5300000E-02   -2.0223191E-04
  2.5335001E-02   -2.3278045E-04
  2.5370000E-02   -2.6547976E-04
  2.5405001E-02   -3.0035447E-04
  2.5440000E-02   -3.3743764E-04
  2.5474999E-02   -3.7678113E-04
  2.5510000E-02   -4.1838517E-04
  2.5544999E-02   -4.6224112E-04
  2.5580000E-02   -5.0835364E-04
  2.5614999E-02   -5.5668416E-04
  2.5650000E-02   -6.0717890E-04
  2.5684999E-02   -6.5978366E-04
  2.5720000E-02   -7.1439747E-04
  2.5754999E-02   -7.7090244E-04
  2.5790000E-02   -8.2918018E-04
  2.5824999E-02   -8.8906143E-04
  2.5860000E-02   -9.5034594E-04
  2.5895000E-02   -1.0128272E-03
  2.5930000E-02   -1.0762525E-03
  2.5965000E-02   -1.1403324E-03
  2.6000001E-02   -1.2047664E-03
  2.6035000E-02   -1.2692133E-03
  2.6070001E-02   -1.3332879E-03
  2.6105000E-02   -1.3965822E-03
  2.6140001E-02   -1.4586550E-03
  2.6175000E-02   -1.5190269E-03
  2.6210001E-02   -1.5771871E-03
  2.6245000E-02   -1.6325931E-03
  2.6280001E-02   -1.6846778E-03
  2.6315000E-02   -1.7328456E-03
  2.6350001E-02   -1.7764712E-03
  2.6385000E-02   -1.8149059E-03
  2.6419999E-02   -1.8474776E-03
  2.6455000E-02   -1.8734970E-03
  2.6489999E-02   -1.8922723E-03
  2.6525000E-02   -1.9030948E-03
  2.6559999E-02   -1.9052379E-03
  2.6595000E-02   -1.8979928E-03
  2.6629999E-02   -1.8806608E-03
  2.6665000E-02   -1.8525344E-03
  2.6699999E-02   -1.8129341E-03
  2.6735000E-02   -1.7612178E-03
  2.6769999E-02   -1.6967499E-03
  2.6805000E-02   -1.6189407E-03
  2.6839999E-02   -1.5272682E-03
  2.6875000E-02   -1.4212374E-03
  2.6910000E-02   -1.3004048E-03
  2.6945001E-02   -1.1644277E-03
  2.6980000E-02   -1.0130220E-03