 -4.8000002E-03    1.0000000E-24
 -4.7650002E-03    1.0000000E-24
 -4.7300002E-03    1.0000002E-24
 -4.6950001E-03    1.0000002E-24
 -4.6600001E-03    1.0000002E-24
 -4.6250001E-03    1.0000000E-24
 -4.5900000E-03    1.0000000E-24
 -4.5550000E-03    1.0000003E-24
 -4.5200000E-03    1.0000001E-24
 -4.4849999E-03    9.9999992E-25
 -4.4499999E-03    1.0000002E-24
 -4.4149999E-03    1.0000003E-24
 -4.3799998E-03    1.0000001E-24
 -4.3449998E-03    1.0000001E-24
 -4.3100002E-03    1.0000000E-24
 -4.2750002E-03    1.0000001E-24
 -4.2400002E-03    1.0000001E-24
 -4.2050001E-03    1.0000000E-24
 -4.1700001E-03    9.9999972E-25
 -4.1350001E-03    1.0000000E-24
 -4.1000000E-03    1.0000006E-24
 -4.0650000E-03    1.0000003E-24
 -4.0300000E-03    9.9999953E-25
 -3.9949999E-03    9.9999972E-25
 -3.9599999E-03    1.0000003E-24
 -3.9249999E-03    1.0000004E-24
 -3.8900001E-03    1.0000001E-24
 -3.8550000E-03    1.0000000E-24
 -3.8200000E-03    1.0000000E-24
 -3.7849999E-03    1.0000003E-24
 -3.7499999E-03    1.0000002E-24
 -3.7150001E-03    1.0000000E-24
 -3.6800001E-03    1.0000004E-24
 -3.6450000E-03    1.0000005E-24
 -3.6100000E-03    9.9999982E-25
 -3.5750000E-03    9.9999963E-25
 -3.5399999E-03    1.0000004E-24
 -3.5049999E-03    1.0000003E-24
 -3.4700001E-03    9.9999972E-25
 -3.4350001E-03    1.0000000E-24
 -3.4000000E-03    1.0000005E-24
 -3.3650000E-03    1.0000001E-24
 -3.3300000E-03    9.9999992E-25
 -3.2949999E-03    1.0000001E-24
 -3.2599999E-03    1.0000000E-24
 -3.2250001E-03    9.9999972E-25
 -3.1900001E-03    9.9999992E-25
 -3.1550000E-03    1.0000004E-24
 -3.1200000E-03    1.0000004E-24
 -3.0850000E-03    1.0000002E-24
 -3.0499999E-03    1.0000003E-24
 -3.0149999E-03    1.0000000E-24
 -2.9800001E-03    9.9999943E-25
 -2.9450001E-03    9.9999982E-25
 -2.9100000E-03    1.0000006E-24
 -2.8750000E-03    1.0000006E-24
 -2.8400000E-03    1.0000000E-24
 -2.8049999E-03    1.0000000E-24
 -2.7699999E-03    1.0000004E-24
 -2.7350001E-03    1.0000003E-24
 -2.7000001E-03    9.9999972E-25
 -2.6650000E-03    9.9999963E-25
 -2.6300000E-03    1.0000002E-24
 -2.5950000E-03    1.0000007E-24
 -2.5599999E-03    1.0000005E-24
 -2.5249999E-03    9.9999982E-25
 -2.4900001E-03    1.0000001E-24
 -2.4550001E-03    1.0000004E-24
 -2.4200000E-03    1.0000003E-24
 -2.3850000E-03    1.0000004E-24
 -2.3500000E-03    9.9999992E-25
 -2.3149999E-03    9.9999943E-25
 -2.2799999E-03    1.0000000E-24
 -2.2450001E-03    1.0000004E-24
 -2.2100001E-03    1.0000002E-24
 -2.1750000E-03    1.0000004E-24
 -2.1400000E-03    1.0000003E-24
 -2.1050000E-03    9.9999972E-25
 -2.0699999E-03    9.9999963E-25
 -2.0349999E-03    1.0000004E-24
 -2.0000001E-03    1.0000009E-24
 -1.9650001E-03    1.0000001E-24
 -1.9300000E-03    9.9999992E-25
 -1.8950000E-03    1.0000004E-24
 -1.8600000E-03    1.0000001E-24
 -1.8250000E-03    9.9999923E-25
 -1.7900000E-03    1.0000000E-24
 -1.7550000E-03    1.0000014E-24
 -1.7199999E-03    1.0000008E-24
 -1.6850000E-03    9.9999913E-25
 -1.6500000E-03    9.9999874E-25
 -1.6150000E-03    9.9999992E-25
 -1.5800000E-03    1.0000006E-24
 -1.5450000E-03    1.0000004E-24
 -1.5100000E-03    1.0000003E-24
 -1.4750001E-03    1.0000000E-24
 -1.4400000E-03    9.9999972E-25
 -1.4050000E-03    1.0000003E-24
 -1.3700000E-03    1.0000010E-24
 -1.3350000E-03    1.0000005E-24
 -1.3000000E-03    9.9999972E-25
 -1.2650000E-03    9.9999913E-25
 -1.2300001E-03    9.9999933E-25
 -1.1950000E-03    1.0000006E-24
 -1.1600000E-03    1.0000013E-24
 -1.1250000E-03    1.0000004E-24
 -1.0900000E-03    9.9999982E-25
 -1.0550000E-03    9.9999992E-25
 -1.0200000E-03    9.9999953E-25
 -9.8500005E-04    9.9999982E-25
 -9.5000002E-04    1.0000011E-24
 -9.1499998E-04    1.0000011E-24
 -8.8000001E-04    1.0000002E-24
 -8.4499997E-04    9.9999933E-25
 -8.1000000E-04    9.9999903E-25
 -7.7500002E-04    9.9999943E-25
 -7.3999999E-04    1.0000003E-24
 -7.0500001E-04    1.0000012E-24
 -6.6999998E-04    1.0000014E-24
 -6.3500000E-04    1.0000001E-24
 -6.0000003E-04    9.9999923E-25
 -5.6499999E-04    9.9999953E-25
 -5.3000002E-04    9.9999992E-25
 -4.9499999E-04    1.0000004E-24
 -4.6000001E-04    1.0000018E-24
 -4.2500001E-04    1.0000011E-24
 -3.9000000E-04    9.9999854E-25
 -3.5500000E-04    9.9999824E-25
 -3.1999999E-04    9.9999982E-25
 -2.8499999E-04    1.0000005E-24
 -2.5000001E-04    1.0000007E-24
 -2.1499999E-04    1.0000005E-24
 -1.8000000E-04    9.9999963E-25
 -1.4500000E-04    1.0000001E-24
 -1.1000000E-04    1.0000010E-24
 -7.5000004E-05    1.0000005E-24
 -3.9999999E-05    1.0000000E-24
 -4.9999999E-06    1.0000003E-24
  2.9999999E-05    9.9999992E-25
  6.5000000E-05    9.9999963E-25
  9.9999997E-05    1.0000003E-24
  1.3499999E-04    1.0000011E-24
  1.7000000E-04    1.0000004E-24
  2.0500000E-04    9.9999893E-25
  2.3999999E-04    9.9999874E-25
  2.7500000E-04    1.0000002E-24
  3.1000000E-04    1.0000006E-24
  3.4500001E-04    9.9999953E-25
  3.8000001E-04    1.0000002E-24
  4.1499999E-04    1.0000010E-24
  4.4999999E-04    9.9999982E-25
  4.8500000E-04    1.0000007E-24
  5.2000000E-04    1.0000027E-24
  5.5499998E-04    9.9999785E-25
  5.9000001E-04    9.9999479E-25
  6.2499999E-04    1.0000046E-24
  6.6000002E-04    1.0000053E-24
  6.9500000E-04    9.9998779E-25
  7.3000003E-04    9.9999736E-25
  7.6500000E-04    1.0000262E-24
  7.9999998E-04    9.9999381E-25
  8.3500001E-04    9.9995505E-25
  8.6999999E-04    1.0000286E-24
  9.0500002E-04    1.0000667E-24
  9.4000000E-04    9.9993277E-25
  9.7499997E-04    9.9991630E-25
  1.0100000E-03    1.0001185E-24
  1.0450000E-03    1.0000964E-24
  1.0800000E-03    9.9984412E-25
  1.1150000E-03    9.9987784E-25
  1.1500000E-03    1.0001214E-24
  1.1849999E-03    1.0002301E-24
  1.2200000E-03    1.0000862E-24
  1.2550000E-03    9.9941784E-25
  1.2900000E-03    9.9938737E-25
  1.3250000E-03    1.0014910E-24
  1.3600000E-03    1.0016757E-24
  1.3950000E-03    9.9655822E-25
  1.4299999E-03    9.9638506E-25
  1.4650000E-03    1.0070809E-24
  1.5000000E-03    1.0070649E-24
  1.5350000E-03    9.8690296E-25
  1.5700000E-03    9.8665259E-25
  1.6050000E-03    1.0219081E-24
  1.6400000E-03    1.0252236E-24
  1.6749999E-03    9.6703342E-25
  1.7100000E-03    9.5187812E-25
  1.7450000E-03    1.0433215E-24
  1.7800000E-03    1.0919186E-24
  1.8150000E-03    9.5531174E-25
  1.8500000E-03    8.2690920E-25
  1.8850000E-03    1.0177455E-24
  1.9200000E-03    1.3165667E-24
  1.9550000E-03    1.0783972E-24
  1.9900000E-03    4.4458480E-25
  2.0250001E-03    6.7560232E-25
  2.0600001E-03    1.9242185E-24
  2.0949999E-03    1.8699323E-24
  2.1299999E-03   -4.3764839E-25
  2.1650000E-03   -9.7669924E-25
  2.2000000E-03    3.0385833E-24
  2.2350000E-03    5.0743229E-24
  2.2700001E-03   -1.4891288E-24
  2.3050001E-03   -6.8186336E-24
  2.3399999E-03    3.1631098E-24
  2.3749999E-03    1.5120035E-23
  2.4100000E-03    1.3176340E-24
  2.4450000E-03   -2.3067981E-23
  2.4800000E-03   -6.6731424E-24
  2.5150001E-03    3.9603547E-23
  2.5500001E-03    2.5842397E-23
  2.5849999E-03   -5.6676128E-23
  2.6199999E-03   -5.9151504E-23
  2.6550000E-03    7.9451710E-23
  2.6900000E-03    1.2761765E-22
  2.7250000E-03   -9.0929466E-23
  2.7600001E-03   -2.4189946E-22
  2.7950001E-03    7.8114521E-23
  2.8299999E-03    4.3377146E-22
  2.8649999E-03    9.2000856E-24
  2.9000000E-03   -7.1998545E-22
  2.9350000E-03   -2.3973289E-22
  2.9700000E-03    1.1228372E-21
  3.0050001E-03    7.4979217E-22
  3.0400001E-03   -1.6137685E-21
  3.0749999E-03   -1.7294353E-21
  3.1099999E-03    2.1001385E-21
  3.1450000E-03    3.4664345E-21
  3.1800000E-03   -2.3177126E-21
  3.2150000E-03   -6.3050162E-21
  3.2500001E-03    1.7481616E-21
  3.2850001E-03    1.0620610E-20
  3.3199999E-03    5.6946352E-22
  3.3549999E-03   -1.6640326E-20
  3.3900000E-03   -6.1929276E-21
  3.4250000E-03    2.4177413E-20
  3.4600000E-03    1.7482036E-20
  3.4950001E-03   -3.2078252E-20
  3.5300001E-03   -3.7632857E-20
  3.5649999E-03    3.7436372E-20
  3.5999999E-03    7.0497004E-20
  3.6350000E-03   -3.4405515E-20
  3.6700000E-03   -1.1978418E-19
  3.7050000E-03    1.2790311E-20
  3.7400001E-03    1.8738920E-19
  3.7750001E-03    4.3477285E-20
  3.8099999E-03   -2.7023642E-19
  3.8449999E-03   -1.5730392E-19
  3.8800000E-03    3.5529584E-19
  3.9149998E-03    3.5797497E-19
  3.9499998E-03   -4.1234866E-19
  3.9849998E-03   -6.7755522E-19
  4.0199999E-03    3.8487005E-19
  4.0549999E-03    1.1420868E-18
  4.0899999E-03   -1.8017007E-19
  4.1250000E-03   -1.7547917E-18
  4.1600000E-03   -3.3816066E-19
  4.1950000E-03    2.4688306E-18
  4.2300001E-03    1.3502912E-18
  4.2650001E-03   -3.1479934E-18
  4.3000001E-03   -3.0643853E-18
  4.3350002E-03    3.5168688E-18
  4.3700002E-03    5.6740458E-18
  4.4049998E-03   -3.1068953E-18
  4.4399998E-03   -9.2759976E-18
  4.4749998E-03    1.2133820E-18
  4.5099999E-03    1.3736365E-17
  4.5449999E-03    3.1109260E-18
  4.5799999E-03   -1.8499966E-17
  4.6150000E-03   -1.0987254E-17
  4.6500000E-03    2.2351270E-17
  4.6850001E-03    2.3517474E-17
  4.7200001E-03   -2.3160581E-17
  4.7550001E-03   -4.1411749E-17
  4.7900002E-03    1.7684835E-17
  4.8250002E-03    6.4392245E-17
  4.8600002E-03   -1.5370437E-18
  4.8949998E-03   -9.0359754E-17
  4.9299998E-03   -3.0512608E-17
  4.9649999E-03    1.1437712E-16
  4.9999999E-03    8.3707025E-17
  5.0349999E-03   -1.2762503E-16
  5.0700000E-03   -1.6174323E-16
  5.1050000E-03    1.1662856E-16
  5.1400000E-03    2.6434366E-16
  5.1750001E-03   -6.3216987E-17
  5.2100001E-03   -3.8396607E-16
  5.2450001E-03   -5.4169971E-17
  5.2800002E-03    5.0193018E-16
  5.3150002E-03    2.5712792E-16
  5.3500002E-03   -5.8463633E-16
  5.3849998E-03   -5.6125150E-16
  5.4199998E-03    5.8104311E-16
  5.4549999E-03    9.6708039E-16
  5.4899999E-03   -4.2308663E-16
  5.5249999E-03   -1.4483138E-15
  5.5600000E-03    3.1126737E-17
  5.5950000E-03    1.9385749E-15
  5.6300000E-03    6.7341269E-16
  5.6650001E-03   -2.3193168E-15
  5.7000001E-03   -1.7464757E-15
  5.7350001E-03    2.4130465E-15
  5.7700002E-03    3.1905143E-15
  5.8050002E-03   -1.9873269E-15
  5.8400002E-03   -4.9161127E-15
  5.8749998E-03    7.7596667E-16
  5.9099998E-03    6.7013308E-15
  5.9449999E-03    1.4768187E-15
  5.9799999E-03   -8.1577980E-15
  6.0149999E-03   -4.9456653E-15
  6.0500000E-03    8.7167026E-15
  6.0850000E-03    9.6277729E-15
  6.1200000E-03   -7.6509742E-15
  6.1550001E-03   -1.5229702E-14
  6.1900001E-03    4.1505101E-15
  6.2250001E-03    2.1054954E-14
  6.2600002E-03    2.5358970E-15
  6.2950002E-03   -2.5921121E-14
  6.3299998E-03   -1.2887252E-14
  6.3649998E-03    2.8144184E-14
  6.3999998E-03    2.6835952E-14
  6.4349999E-03   -2.5632808E-14
  6.4699999E-03   -4.3464090E-14
  6.5049999E-03    1.6131670E-14
  6.5400000E-03    6.0725344E-14
  6.5750000E-03    2.3608850E-15
  6.6100000E-03   -7.5272220E-14
  6.6450001E-03   -3.1003462E-14
  6.6800001E-03    8.2485742E-14
  6.7150001E-03    6.9394760E-14
  6.7500002E-03   -7.6808304E-14
  6.7850002E-03   -1.1482899E-13
  6.8199998E-03    5.2460728E-14
  6.8549998E-03    1.6167815E-13
  6.8899998E-03   -4.5748161E-15
  6.9249999E-03   -2.0110229E-13
  6.9599999E-03   -6.9306269E-14
  6.9949999E-03    2.2131197E-13
  7.0300000E-03    1.6750760E-13
  7.0650000E-03   -2.0859134E-13
  7.1000000E-03   -2.8254881E-13
  7.1350001E-03    1.4922690E-13
  7.1700001E-03    3.9990713E-13
  7.2050001E-03   -3.2351126E-14
  7.2400002E-03   -4.9768799E-13
  7.2750002E-03   -1.4648740E-13
  7.3099998E-03    5.4769508E-13
  7.3449998E-03    3.8146840E-13
  7.3799998E-03   -5.1829558E-13
  7.4149999E-03   -6.5304121E-13
  7.4499999E-03    3.7927346E-13
  7.4850000E-03    9.2576793E-13
  7.5200000E-03   -1.0851479E-13
  7.5550000E-03   -1.1484619E-12
  7.5900001E-03   -3.0002465E-13
  7.6250001E-03    1.2576356E-12
  7.6600001E-03    8.2822117E-13
  7.6950002E-03   -1.1849690E-12
  7.7300002E-03   -1.4272057E-12
  7.7650002E-03    8.6896267E-13
  7.7999998E-03    2.0144149E-12
  7.8349998E-03   -2.6997125E-13
  7.8699999E-03   -2.4763522E-12
  7.9049999E-03   -6.1313113E-13
  7.9399999E-03    2.6788040E-12
  7.9750000E-03    1.7275187E-12
  8.0100000E-03   -2.4853442E-12
  8.0450000E-03   -2.9559098E-12
  8.0800001E-03    1.7836672E-12
  8.1150001E-03    4.1153140E-12
  8.1500001E-03   -5.1719485E-13
  8.1850002E-03   -4.9691479E-12
  8.2200002E-03   -1.2830078E-12
  8.2550002E-03    5.2552459E-12
  8.2900003E-03    3.4731291E-12
  8.3250003E-03   -4.7293367E-12
  8.3600003E-03   -5.7862452E-12
  8.3950004E-03    3.2199699E-12
  8.4300004E-03    7.8441221E-12
  8.4650004E-03   -6.8695787E-13
  8.5000005E-03   -9.1962341E-12
  8.5349996E-03   -2.7280444E-12
  8.5699996E-03    9.3870918E-12
  8.6049996E-03    6.6729859E-12
  8.6399997E-03   -8.0464446E-12
  8.6749997E-03   -1.0593004E-11
  8.7099997E-03    4.9889828E-12
  8.7449998E-03    1.3783970E-11
  8.7799998E-03   -3.0329298E-13
  8.8149998E-03   -1.5493145E-11
  8.8499999E-03   -5.5933279E-12
  8.8849999E-03    1.5056782E-11
  8.9199999E-03    1.1955283E-11
  8.9550000E-03   -1.2053724E-11
  8.9900000E-03   -1.7778253E-11
  9.0250000E-03    6.4451127E-12
  9.0600001E-03    2.1939443E-11
  9.0950001E-03    1.3339745E-12
  9.1300001E-03   -2.3394666E-11
  9.1650002E-03   -1.0363417E-11
  9.2000002E-03    2.1400673E-11
  9.2350002E-03    1.9328560E-11
  9.2700003E-03   -1.5715863E-11
  9.3050003E-03   -2.6711990E-11
  9.3400003E-03    6.7275070E-12
  9.3750004E-03    3.1058114E-11
  9.4100004E-03    4.5351557E-12
  9.4450004E-03   -3.1258846E-11
  9.4799995E-03   -1.6516165E-11
  9.5149996E-03    2.6802534E-11
  9.5499996E-03    2.7365239E-11
  9.5849996E-03   -1.7932799E-11
  9.6199997E-03   -3.5254851E-11
  9.6549997E-03    5.6719547E-12
  9.6899997E-03    3.8725859E-11
  9.7249998E-03    8.3181118E-12
  9.7599998E-03   -3.6978857E-11
  9.7949998E-03   -2.2016817E-11
  9.8299999E-03    3.0033698E-11
  9.8649999E-03    3.3396532E-11
  9.8999999E-03   -1.8727056E-11
  9.9350000E-03   -4.0762567E-11
  9.9700000E-03    4.5664193E-12
  1.0005000E-02    4.3025028E-11
  1.0040000E-02    1.0528568E-11
  1.0075000E-02   -3.9857225E-11
  1.0110000E-02   -2.4553038E-11
  1.0145000E-02    3.1698668E-11
  1.0180000E-02    3.5727473E-11
  1.0215000E-02   -1.9615981E-11
  1.0250000E-02   -4.2709086E-11
  1.0285000E-02    5.1035404E-12
  1.0320000E-02    4.4701003E-11
  1.0355000E-02    1.0117208E-11
  1.0390000E-02   -4.1497014E-11
  1.0425000E-02   -2.4301032E-11
  1.0460000E-02    3.3451183E-11
  1.0495000E-02    3.5850843E-11
  1.0530000E-02   -2.1380979E-11
  1.0565000E-02   -4.3393587E-11
  1.0600000E-02    6.5170989E-12
  1.0635000E-02    4.5837001E-11
  1.0670000E-02    9.4595954E-12
  1.0705000E-02   -4.2571422E-11
  1.0740000E-02   -2.4488999E-11
  1.0775000E-02    3.3741770E-11
  1.0810000E-02    3.6440725E-11
  1.0845000E-02   -2.0329736E-11
  1.0880000E-02   -4.3458584E-11
  1.0915000E-02    4.0654351E-12
  1.0950000E-02    4.4201840E-11
  1.0985000E-02    1.2624938E-11
  1.1020000E-02   -3.8214053E-11
  1.1055000E-02   -2.6838547E-11
  1.1090000E-02    2.6408480E-11
  1.1125000E-02    3.5931338E-11
  1.1160000E-02   -1.1075405E-11
  1.1195000E-02   -3.8376417E-11
  1.1230000E-02   -4.7886556E-12
  1.1265000E-02    3.4053194E-11
  1.1300000E-02    1.8168253E-11
  1.1335000E-02   -2.4173146E-11
  1.1370000E-02   -2.6490520E-11
  1.1405000E-02    1.1302172E-11
  1.1440000E-02    2.8425031E-11
  1.1475000E-02    1.1254505E-12
  1.1510000E-02   -2.4700481E-11
  1.1545000E-02   -1.0245908E-11
  1.1580000E-02    1.7695855E-11
  1.1615000E-02    1.4882807E-11
  1.1650000E-02   -1.0096186E-11
  1.1685000E-02   -1.5340900E-11
  1.1720000E-02    4.2095420E-12
  1.1755000E-02    1.3052447E-11
  1.1790000E-02   -1.7217781E-12
  1.1825000E-02   -1.0765239E-11
  1.1860000E-02    2.5063460E-12
  1.1895000E-02    1.1536187E-11
  1.1930000E-02   -3.7886816E-12
  1.1965000E-02   -1.6286993E-11
  1.2000000E-02    1.8954417E-12
  1.2035000E-02    2.3059147E-11
  1.2070000E-02    5.3714615E-12
  1.2105000E-02   -2.8592323E-11
  1.2140000E-02   -1.8510493E-11
  1.2175000E-02    2.9037833E-11
  1.2210000E-02    3.6202524E-11
  1.2245000E-02   -2.0109692E-11
  1.2280000E-02   -5.3910293E-11
  1.2315000E-02   -6.1479917E-13
  1.2350000E-02    6.4177740E-11
  1.2385000E-02    3.0621439E-11
  1.2420000E-02   -6.0341149E-11
  1.2455000E-02   -6.2709969E-11
  1.2490000E-02    4.0219005E-11
  1.2525000E-02    8.8958486E-11
  1.2560000E-02   -4.8462519E-12
  1.2595000E-02   -1.0088615E-10
  1.2630000E-02   -4.0352319E-11
  1.2665000E-02    9.1261297E-11
  1.2700000E-02    8.4246013E-11
  1.2735000E-02   -5.9785420E-11
  1.2770000E-02   -1.1631247E-10
  1.2805000E-02    9.8901044E-12
  1.2840000E-02    1.2442525E-10
  1.2875000E-02    4.3765856E-11
  1.2910000E-02   -1.1094565E-10
  1.2945000E-02   -9.7943084E-11
  1.2980000E-02    6.5065391E-11
  1.3015000E-02    1.2365846E-10
  1.3050000E-02   -1.7059642E-11
  1.3085000E-02   -1.4111846E-10
  1.3120000E-02   -5.6464843E-11
  1.3155000E-02    1.0293238E-10
  1.3190000E-02    8.3173489E-11
  1.3225000E-02   -9.1064670E-11
  1.3260000E-02   -1.5184871E-10
  1.3295000E-02   -9.7455256E-12
  1.3330000E-02    1.0230836E-10
  1.3365000E-02   -2.1593567E-12
  1.3400000E-02   -1.6668611E-10
  1.3435000E-02   -1.4527461E-10
  1.3470000E-02    3.2025797E-12
  1.3505000E-02    1.7302340E-11
  1.3540000E-02   -1.4381106E-10
  1.3575000E-02   -2.4856164E-10
  1.3610000E-02   -1.7699506E-10
  1.3645000E-02   -9.9012389E-11
  1.3680000E-02   -1.8250218E-10
  1.3715000E-02   -3.3973874E-10
  1.3750000E-02   -3.9995832E-10
  1.3785000E-02   -3.7695960E-10
  1.3820000E-02   -4.1257284E-10
  1.3855000E-02   -5.5094757E-10
  1.3890000E-02   -7.0824108E-10
  1.3925000E-02   -8.1896873E-10
  1.3960000E-02   -9.0986979E-10
  1.3995000E-02   -1.0477477E-09
  1.4030000E-02   -1.2684749E-09
  1.4065000E-02   -1.5430656E-09
  1.4100000E-02   -1.8073458E-09
  1.4135000E-02   -2.0559112E-09
  1.4170000E-02   -2.3753919E-09
  1.4205000E-02   -2.8244149E-09
  1.4240000E-02   -3.3361829E-09
  1.4275000E-02   -3.8367132E-09
  1.4310000E-02   -4.3961110E-09
  1.4345000E-02   -5.1309339E-09
  1.4380000E-02   -6.0140479E-09
  1.4415000E-02   -6.9408470E-09
  1.4450000E-02   -7.9431359E-09
  1.4485000E-02   -9.1613410E-09
  1.4520000E-02   -1.0623692E-08
  1.4555000E-02   -1.2234227E-08
  1.4590000E-02   -1.3986813E-08
  1.4625000E-02   -1.6019150E-08
  1.4660000E-02   -1.8421895E-08
  1.4695000E-02   -2.1141878E-08
  1.4730000E-02   -2.4128715E-08
  1.4765000E-02   -2.7470305E-08
  1.4800000E-02   -3.1319594E-08
  1.4835000E-02   -3.5742676E-08
  1.4870000E-02   -4.0698460E-08
  1.4905000E-02   -4.6174168E-08
  1.4940000E-02   -5.2307119E-08
  1.4975000E-02   -5.9306778E-08
  1.5010000E-02   -6.7246503E-08
  1.5045000E-02   -7.6051727E-08
  1.5080000E-02   -8.5766466E-08
  1.5115000E-02   -9.6679010E-08
  1.5150000E-02   -1.0904331E-07
  1.5185000E-02   -1.2284100E-07
  1.5220000E-02   -1.3802590E-07
  1.5255000E-02   -1.5485362E-07
  1.5290000E-02   -1.7371366E-07
  1.5325000E-02   -1.9475850E-07
  1.5360000E-02   -2.1798421E-07
  1.5395000E-02   -2.4359139E-07
  1.5430000E-02   -2.7198129E-07
  1.5465000E-02   -3.0345424E-07
  1.5500000E-02   -3.3817554E-07
  1.5535000E-02   -3.7639657E-07
  1.5570000E-02   -4.1848793E-07
  1.5605000E-02   -4.6480571E-07
  1.5640000E-02   -5.1570635E-07
  1.5675001E-02   -5.7161833E-07
  1.5710000E-02   -6.3295914E-07
  1.5745001E-02   -7.0009099E-07
  1.5780000E-02   -7.7347505E-07
  1.5814999E-02   -8.5372881E-07
  1.5850000E-02   -9.4142632E-07
  1.5884999E-02   -1.0370170E-06
  1.5920000E-02   -1.1410526E-06
  1.5954999E-02   -1.2542931E-06
  1.5990000E-02   -1.3774779E-06
  1.6024999E-02   -1.5112149E-06
  1.6060000E-02   -1.6562059E-06
  1.6094999E-02   -1.8133481E-06
  1.6130000E-02   -1.9835086E-06
  1.6164999E-02   -2.1674407E-06
  1.6200000E-02   -2.3660266E-06
  1.6235000E-02   -2.5803567E-06
  1.6270000E-02   -2.8114632E-06
  1.6305000E-02   -3.0602234E-06
  1.6340001E-02   -3.3276524E-06
  1.6375000E-02   -3.6150359E-06
  1.6410001E-02   -3.9236306E-06
  1.6445000E-02   -4.2544762E-06
  1.6480001E-02   -4.6086775E-06
  1.6515000E-02   -4.9876298E-06
  1.6550001E-02   -5.3927815E-06
  1.6585000E-02   -5.8253927E-06
  1.6620001E-02   -6.2867130E-06
  1.6655000E-02   -6.7781825E-06
  1.6690001E-02   -7.3013098E-06
  1.6725000E-02   -7.8575313E-06
  1.6759999E-02   -8.4483008E-06
  1.6795000E-02   -9.0751364E-06
  1.6829999E-02   -9.7394859E-06
  1.6865000E-02   -1.0442755E-05
  1.6899999E-02   -1.1186532E-05
  1.6935000E-02   -1.1972491E-05
  1.6969999E-02   -1.2802039E-05
  1.7005000E-02   -1.3676395E-05
  1.7039999E-02   -1.4597071E-05
  1.7075000E-02   -1.5565825E-05
  1.7109999E-02   -1.6584061E-05
  1.7145000E-02   -1.7652776E-05
  1.7180000E-02   -1.8773144E-05
  1.7215000E-02   -1.9946725E-05
  1.7250000E-02   -2.1174876E-05
  1.7285001E-02   -2.2458444E-05
  1.7320000E-02   -2.3798206E-05
  1.7355001E-02   -2.5195246E-05
  1.7390000E-02   -2.6650589E-05
  1.7425001E-02   -2.8164795E-05
  1.7460000E-02   -2.9738272E-05
  1.7495001E-02   -3.1371543E-05
  1.7530000E-02   -3.3064989E-05
  1.7565001E-02   -3.4818673E-05
  1.7600000E-02   -3.6632540E-05
  1.7635001E-02   -3.8506441E-05
  1.7670000E-02   -4.0440031E-05
  1.7704999E-02   -4.2432690E-05
  1.7740000E-02   -4.4483531E-05
  1.7774999E-02   -4.6591631E-05
  1.7810000E-02   -4.8755941E-05
  1.7844999E-02   -5.0974922E-05
  1.7880000E-02   -5.3246782E-05
  1.7914999E-02   -5.5569828E-05
  1.7950000E-02   -5.7941976E-05
  1.7984999E-02   -6.0360606E-05
  1.8020000E-02   -6.2823012E-05
  1.8054999E-02   -6.5326509E-05
  1.8090000E-02   -6.7867972E-05
  1.8124999E-02   -7.0443813E-05
  1.8160000E-02   -7.3050222E-05
  1.8195000E-02   -7.5683252E-05
  1.8230001E-02   -7.8339050E-05
  1.8265000E-02   -8.1013131E-05
  1.8300001E-02   -8.3700317E-05
  1.8335000E-02   -8.6395732E-05
  1.8370001E-02   -8.9094567E-05
  1.8405000E-02   -9.1791146E-05
  1.8440001E-02   -9.4479583E-05
  1.8475000E-02   -9.7154349E-05
  1.8510001E-02   -9.9809302E-05
  1.8545000E-02   -1.0243795E-04
  1.8580001E-02   -1.0503404E-04
  1.8615000E-02   -1.0759108E-04
  1.8650001E-02   -1.1010234E-04
  1.8685000E-02   -1.1256110E-04
  1.8719999E-02   -1.1496009E-04
  1.8755000E-02   -1.1729214E-04
  1.8789999E-02   -1.1955105E-04
  1.8825000E-02   -1.2172986E-04
  1.8859999E-02   -1.2382054E-04
  1.8895000E-02   -1.2581621E-04
  1.8929999E-02   -1.2771061E-04
  1.8965000E-02   -1.2949684E-04
  1.8999999E-02   -1.3116807E-04
  1.9035000E-02   -1.3271728E-04
  1.9069999E-02   -1.3413779E-04
  1.9105000E-02   -1.3542437E-04
  1.9140000E-02   -1.3657143E-04
  1.9175000E-02   -1.3757180E-04
  1.9210000E-02   -1.3842004E-04
  1.9245001E-02   -1.3911253E-04
  1.9280000E-02   -1.3964419E-04
  1.9315001E-02   -1.4001002E-04
  1.9350000E-02   -1.4020644E-04
  1.9385001E-02   -1.4022992E-04
  1.9420000E-02   -1.4007741E-04
  1.9455001E-02   -1.3974711E-04
  1.9490000E-02   -1.3923662E-04
  1.9525001E-02   -1.3854382E-04
  1.9560000E-02   -1.3766844E-04
  1.9595001E-02   -1.3661034E-04
  1.9630000E-02   -1.3536945E-04
  1.9664999E-02   -1.3394719E-04
  1.9700000E-02   -1.3234449E-04
  1.9734999E-02   -1.3056274E-04
  1.9770000E-02   -1.2860593E-04
  1.9804999E-02   -1.2647775E-04
  1.9840000E-02   -1.2418070E-04
  1.9874999E-02   -1.2171984E-04
  1.9910000E-02   -1.1910105E-04
  1.9944999E-02   -1.1632907E-04
  1.9980000E-02   -1.1341092E-04
  2.0014999E-02   -1.1035439E-04
  2.0050000E-02   -1.0716538E-04
  2.0085000E-02   -1.0385181E-04
  2.0120000E-02   -1.0042390E-04
  2.0155000E-02   -9.6889991E-05
  2.0190001E-02   -9.3258772E-05
  2.0225000E-02   -8.9540692E-05
  2.0260001E-02   -8.5745458E-05
  2.0295000E-02   -8.1883954E-05
  2.0330001E-02   -7.7968012E-05
  2.0365000E-02   -7.4007061E-05
  2.0400001E-02   -7.0011978E-05
  2.0435000E-02   -6.5996508E-05
  2.0470001E-02   -6.1971070E-05
  2.0505000E-02   -5.7945635E-05
  2.0540001E-02   -5.3933909E-05
  2.0575000E-02   -4.9947295E-05
  2.0609999E-02   -4.5995312E-05
  2.0645000E-02   -4.2090891E-05
  2.0679999E-02   -3.8245267E-05
  2.0715000E-02   -3.4467150E-05
  2.0749999E-02   -3.0768522E-05
  2.0785000E-02   -2.7160284E-05
  2.0819999E-02   -2.3649991E-05
  2.0855000E-02   -2.0247893E-05
  2.0889999E-02   -1.6963633E-05
  2.0925000E-02   -1.3803308E-05
  2.0959999E-02   -1.0775585E-05
  2.0995000E-02   -7.8886069E-06
  2.1029999E-02   -5.1462248E-06
  2.1065000E-02   -2.5549630E-06
  2.1100000E-02   -1.2144454E-07
  2.1135001E-02    2.1531346E-06
  2.1170000E-02    4.2649840E-06
  2.1205001E-02    6.2084328E-06
  2.1240000E-02    7.9842039E-06
  2.1275001E-02    9.5924834E-06
  2.1310000E-02    1.1030279E-05
  2.1345001E-02    1.2299504E-05
  2.1380000E-02    1.3402354E-05
  2.1415001E-02    1.4338600E-05
  2.1450000E-02    1.5113284E-05
  2.1485001E-02    1.5731181E-05
  2.1520000E-02    1.6192820E-05
  2.1555001E-02    1.6504744E-05
  2.1590000E-02    1.6675574E-05
  2.1624999E-02    1.6708360E-05
  2.1660000E-02    1.6609853E-05
  2.1694999E-02    1.6389775E-05
  2.1730000E-02    1.6053522E-05
  2.1764999E-02    1.5610374E-05
  2.1800000E-02    1.5071948E-05
  2.1834999E-02    1.4443195E-05
  2.1870000E-02    1.3732849E-05
  2.1904999E-02    1.2955166E-05
  2.1940000E-02    1.2117160E-05
  2.1974999E-02    1.1226256E-05
  2.2010000E-02    1.0296191E-05
  2.2045000E-02    9.3351209E-06
  2.2080000E-02    8.3503755E-06
  2.2115000E-02    7.3552706E-06
  2.2150001E-02    6.3577831E-06
  2.2185000E-02    5.3642170E-06
  2.2220001E-02    4.3874538E-06
  2.2255000E-02    3.4352147E-06
  2.2290001E-02    2.5117074E-06
  2.2325000E-02    1.6279926E-06
  2.2360001E-02    7.9117899E-07
  2.2395000E-02    3.7584273E-09
  2.2430001E-02   -7.2491446E-07
  2.2465000E-02   -1.3886063E-06
  2.2500001E-02   -1.9872653E-06
  2.2535000E-02   -2.5142199E-06
  2.2569999E-02   -2.9643095E-06
  2.2605000E-02   -3.3394122E-06
  2.2639999E-02   -3.6353335E-06
  2.2675000E-02   -3.8481098E-06
  2.2709999E-02   -3.9819947E-06
  2.2745000E-02   -4.0361542E-06
  2.2779999E-02   -4.0078530E-06
  2.2815000E-02   -3.9024399E-06
  2.2849999E-02   -3.7218065E-06
  2.2885000E-02   -3.4651073E-06
  2.2919999E-02   -3.1391498E-06
  2.2955000E-02   -2.7480501E-06
  2.2990000E-02   -2.2922598E-06
  2.3025000E-02   -1.7796123E-06
  2.3060000E-02   -1.2159639E-06
  2.3095001E-02   -6.0244867E-07
  2.3130000E-02    5.2201226E-08
  2.3165001E-02    7.3960797E-07
  2.3200000E-02    1.4579981E-06
  2.3235001E-02    2.1999006E-06
  2.3270000E-02    2.9561495E-06
  2.3305001E-02    3.7235041E-06
  2.3340000E-02    4.4946996E-06
  2.3375001E-02    5.2608134E-06
  2.3410000E-02    6.0190346E-06
  2.3445001E-02    6.7632081E-06
  2.3480000E-02    7.4842160E-06
  2.3514999E-02    8.1790085E-06
  2.3550000E-02    8.8431607E-06
  2.3584999E-02    9.4687484E-06
  2.3620000E-02    1.0052941E-05
  2.3654999E-02    1.0592836E-05
  2.3690000E-02    1.1081841E-05
  2.3724999E-02    1.1517692E-05
  2.3760000E-02    1.1899988E-05
  2.3794999E-02    1.2224620E-05
  2.3830000E-02    1.2488906E-05
  2.3864999E-02    1.2692894E-05
  2.3900000E-02    1.2836138E-05
  2.3934999E-02    1.2918897E-05
  2.3970000E-02    1.2941591E-05
  2.4005000E-02    1.2903900E-05
  2.4040001E-02    1.2807614E-05
  2.4075000E-02    1.2655851E-05
  2.4110001E-02    1.2450172E-05
  2.4145000E-02    1.2192439E-05
  2.4180001E-02    1.1887022E-05
  2.4215000E-02    1.1538554E-05
  2.4250001E-02    1.1149240E-05
  2.4285000E-02    1.0721710E-05
  2.4320001E-02    1.0262802E-05
  2.4355000E-02    9.7790671E-06
  2.4390001E-02    9.2727714E-06
  2.4425000E-02    8.7472090E-06
  2.4460001E-02    8.2087772E-06
  2.4495000E-02    7.6633596E-06
  2.4529999E-02    7.1165873E-06
  2.4565000E-02    6.5728032E-06
  2.4599999E-02    6.0343059E-06
  2.4635000E-02    5.5067562E-06
  2.4669999E-02    4.9972559E-06
  2.4705000E-02    4.5080728E-06
  2.4739999E-02    4.0421401E-06
  2.4775000E-02    3.6053655E-06
  2.4809999E-02    3.1998879E-06
  2.4845000E-02    2.8274264E-06
  2.4879999E-02    2.4929484E-06
  2.4915000E-02    2.1982012E-06
  2.4950000E-02    1.9431020E-06
  2.4985000E-02    1.7303718E-06
  2.5020000E-02    1.5610178E-06
  2.5055001E-02    1.4343415E-06
  2.5090000E-02    1.3513618E-06
  2.5125001E-02    1.3118421E-06
  2.5160000E-02    1.3144366E-06
  2.5195001E-02    1.3582408E-06
  2.5230000E-02    1.4407028E-06
  2.5265001E-02    1.5604085E-06
  2.5300000E-02    1.7172041E-06
  2.5335001E-02    1.9066408E-06
  2.5370000E-02    2.1240623E-06
  2.5405001E-02    2.3686653E-06
  2.5440000E-02    2.6374432E-06
  2.5474999E-02    2.9255793E-06
  2.5510000E-02    3.2298267E-06
  2.5544999E-02    3.5455200E-06
  2.5580000E-02    3.8691383E-06
  2.5614999E-02    4.1996186E-06
  2.5650000E-02    4.5319598E-06
  2.5684999E-02    4.8602542E-06
  2.5720000E-02    5.1822526E-06
  2.5754999E-02    5.4944417E-06
  2.5790000E-02    5.7939728E-06
  2.5824999E-02    6.0801312E-06
  2.5860000E-02    6.3469251E-06
  2.5895000E-02    6.5888462E-06
  2.5930000E-02    6.8084341E-06
  2.5965000E-02    7.0057999E-06
  2.6000001E-02    7.1759682E-06
  2.6035000E-02    7.3170977E-06
  2.6070001E-02    7.4283043E-06
  2.6105000E-02    7.5095877E-06
  2.6140001E-02    7.5638163E-06
  2.6175000E-02    7.5893631E-06
  2.6210001E-02    7.5836356E-06
  2.6245000E-02    7.5509452E-06
  2.6280001E-02    7.4932041E-06
  2.6315000E-02    7.4088389E-06
  2.6350001E-02    7.3024494E-06
  2.6385000E-02    7.1775448E-06
  2.6419999E-02    7.0323563E-06
  2.6455000E-02    6.8696691E-06
  2.6489999E-02    6.6949110E-06
  2.6525000E-02    6.5115332E-06
  2.6559999E-02    6.3229472E-06
  2.6595000E-02    6.1288856E-06
  2.6629999E-02    5.9306117E-06
  2.6665000E-02    5.7381035E-06
  2.6699999E-02    5.5557152E-06
  2.6735000E-02    5.3790072E-06
  2.6769999E-02    5.2117593E-06
  2.6805000E-02    5.0615199E-06
  2.6839999E-02    4.9295886E-06
  2.6875000E-02    4.8184957E-06
  2.6910000E-02    4.7297285E-06
  2.6945001E-02    4.6617984E-06
  2.6980000E-02    4.6205355E-06