 -4.8000002E-03    1.0000000E-24
 -4.7650002E-03    1.0000002E-24
 -4.7300002E-03    1.0000001E-24
 -4.6950001E-03    1.0000000E-24
 -4.6600001E-03    1.0000003E-24
 -4.6250001E-03    1.0000002E-24
 -4.5900000E-03    1.0000001E-24
 -4.5550000E-03    1.0000002E-24
 -4.5200000E-03    9.9999982E-25
 -4.4849999E-03    1.0000001E-24
 -4.4499999E-03    1.0000002E-24
 -4.4149999E-03    1.0000000E-24
 -4.3799998E-03    9.9999982E-25
 -4.3449998E-03    1.0000003E-24
 -4.3100002E-03    1.0000006E-24
 -4.2750002E-03    1.0000000E-24
 -4.2400002E-03    9.9999992E-25
 -4.2050001E-03    1.0000003E-24
 -4.1700001E-03    1.0000002E-24
 -4.1350001E-03    9.9999972E-25
 -4.1000000E-03    9.9999982E-25
 -4.0650000E-03    1.0000002E-24
 -4.0300000E-03    1.0000001E-24
 -3.9949999E-03    9.9999972E-25
 -3.9599999E-03    1.0000000E-24
 -3.9249999E-03    1.0000003E-24
 -3.8900001E-03    9.9999992E-25
 -3.8550000E-03    1.0000000E-24
 -3.8200000E-03    1.0000004E-24
 -3.7849999E-03    1.0000003E-24
 -3.7499999E-03    9.9999972E-25
 -3.7150001E-03    1.0000003E-24
 -3.6800001E-03    1.0000007E-24
 -3.6450000E-03    9.9999982E-25
 -3.6100000E-03    9.9999963E-25
 -3.5750000E-03    1.0000002E-24
 -3.5399999E-03    1.0000000E-24
 -3.5049999E-03    9.9999972E-25
 -3.4700001E-03    1.0000007E-24
 -3.4350001E-03    1.0000005E-24
 -3.4000000E-03    9.9999953E-25
 -3.3650000E-03    9.9999982E-25
 -3.3300000E-03    1.0000004E-24
 -3.2949999E-03    9.9999982E-25
 -3.2599999E-03    9.9999992E-25
 -3.2250001E-03    1.0000005E-24
 -3.1900001E-03    1.0000007E-24
 -3.1550000E-03    9.9999963E-25
 -3.1200000E-03    9.9999953E-25
 -3.0850000E-03    1.0000006E-24
 -3.0499999E-03    1.0000009E-24
 -3.0149999E-03    9.9999943E-25
 -2.9800001E-03    9.9999933E-25
 -2.9450001E-03    1.0000012E-24
 -2.9100000E-03    1.0000006E-24
 -2.8750000E-03    9.9999893E-25
 -2.8400000E-03    1.0000002E-24
 -2.8049999E-03    1.0000013E-24
 -2.7699999E-03    9.9999972E-25
 -2.7350001E-03    9.9999943E-25
 -2.7000001E-03    1.0000008E-24
 -2.6650000E-03    1.0000011E-24
 -2.6300000E-03    9.9999972E-25
 -2.5950000E-03    9.9999982E-25
 -2.5599999E-03    1.0000002E-24
 -2.5249999E-03    9.9999943E-25
 -2.4900001E-03    9.9999943E-25
 -2.4550001E-03    1.0000004E-24
 -2.4200000E-03    1.0000011E-24
 -2.3850000E-03    1.0000005E-24
 -2.3500000E-03    9.9999953E-25
 -2.3149999E-03    9.9999953E-25
 -2.2799999E-03    9.9999963E-25
 -2.2450001E-03    9.9999963E-25
 -2.2100001E-03    1.0000003E-24
 -2.1750000E-03    1.0000007E-24
 -2.1400000E-03    1.0000003E-24
 -2.1050000E-03    1.0000004E-24
 -2.0699999E-03    1.0000008E-24
 -2.0349999E-03    1.0000003E-24
 -2.0000001E-03    9.9999972E-25
 -1.9650001E-03    9.9999982E-25
 -1.9300000E-03    1.0000000E-24
 -1.8950000E-03    9.9999982E-25
 -1.8600000E-03    9.9999982E-25
 -1.8250000E-03    1.0000003E-24
 -1.7900000E-03    1.0000004E-24
 -1.7550000E-03    9.9999972E-25
 -1.7199999E-03    9.9999972E-25
 -1.6850000E-03    1.0000004E-24
 -1.6500000E-03    1.0000005E-24
 -1.6150000E-03    9.9999972E-25
 -1.5800000E-03    9.9999953E-25
 -1.5450000E-03    1.0000000E-24
 -1.5100000E-03    1.0000006E-24
 -1.4750001E-03    1.0000002E-24
 -1.4400000E-03    9.9999963E-25
 -1.4050000E-03    1.0000005E-24
 -1.3700000E-03    1.0000009E-24
 -1.3350000E-03    9.9999972E-25
 -1.3000000E-03    1.0000000E-24
 -1.2650000E-03    1.0000004E-24
 -1.2300001E-03    9.9999963E-25
 -1.1950000E-03    9.9999972E-25
 -1.1600000E-03    1.0000002E-24
 -1.1250000E-03    1.0000000E-24
 -1.0900000E-03    1.0000003E-24
 -1.0550000E-03    1.0000008E-24
 -1.0200000E-03    1.0000001E-24
 -9.8500005E-04    9.9999903E-25
 -9.5000002E-04    9.9999963E-25
 -9.1499998E-04    1.0000006E-24
 -8.8000001E-04    9.9999992E-25
 -8.4499997E-04    9.9999864E-25
 -8.1000000E-04    1.0000000E-24
 -7.7500002E-04    1.0000018E-24
 -7.3999999E-04    9.9999943E-25
 -7.0500001E-04    9.9999854E-25
 -6.6999998E-04    1.0000016E-24
 -6.3500000E-04    1.0000011E-24
 -6.0000003E-04    9.9999824E-25
 -5.6499999E-04    9.9999982E-25
 -5.3000002E-04    1.0000018E-24
 -4.9499999E-04    1.0000001E-24
 -4.6000001E-04    1.0000000E-24
 -4.2500001E-04    1.0000012E-24
 -3.9000000E-04    1.0000001E-24
 -3.5500000E-04    9.9999953E-25
 -3.1999999E-04    1.0000003E-24
 -2.8499999E-04    1.0000000E-24
 -2.5000001E-04    9.9999953E-25
 -2.1499999E-04    1.0000000E-24
 -1.8000000E-04    9.9999972E-25
 -1.4500000E-04    9.9999972E-25
 -1.1000000E-04    1.0000002E-24
 -7.5000004E-05    1.0000000E-24
 -3.9999999E-05    1.0000003E-24
 -4.9999999E-06    1.0000011E-24
  2.9999999E-05    1.0000007E-24
  6.5000000E-05    9.9999943E-25
  9.9999997E-05    9.9999903E-25
  1.3499999E-04    1.0000009E-24
  1.7000000E-04    1.0000013E-24
  2.0500000E-04    9.9999864E-25
  2.3999999E-04    9.9999824E-25
  2.7500000E-04    1.0000017E-24
  3.1000000E-04    1.0000017E-24
  3.4500001E-04    9.9999746E-25
  3.8000001E-04    9.9999923E-25
  4.1499999E-04    1.0000041E-24
  4.4999999E-04    9.9999884E-25
  4.8500000E-04    9.9999322E-25
  5.2000000E-04    1.0000065E-24
  5.5499998E-04    1.0000117E-24
  5.9000001E-04    9.9998454E-25
  6.2499999E-04    9.9998759E-25
  6.6000002E-04    1.0000362E-24
  6.9500000E-04    1.0000040E-24
  7.3000003E-04    9.9992804E-25
  7.6500000E-04    1.0000270E-24
  7.9999998E-04    1.0001195E-24
  8.3500001E-04    9.9989441E-25
  8.6999999E-04    9.9983751E-25
  9.0500002E-04    1.0002670E-24
  9.4000000E-04    1.0001565E-24
  9.7499997E-04    9.9945393E-25
  1.0100000E-03    9.9999262E-25
  1.0450000E-03    1.0009509E-24
  1.0800000E-03    9.9954268E-25
  1.1150000E-03    9.9859249E-25
  1.1500000E-03    1.0014968E-24
  1.1849999E-03    1.0016561E-24
  1.2200000E-03    9.9658573E-25
  1.2550000E-03    9.9892273E-25
  1.2900000E-03    1.0064169E-24
  1.3250000E-03    9.9851055E-25
  1.3600000E-03    9.8974798E-25
  1.3950000E-03    1.0078791E-24
  1.4299999E-03    1.0135573E-24
  1.4650000E-03    9.7953598E-25
  1.5000000E-03    9.8709406E-25
  1.5350000E-03    1.0414440E-24
  1.5700000E-03    1.0016985E-24
  1.6050000E-03    9.2880059E-25
  1.6400000E-03    1.0306711E-24
  1.6749999E-03    1.1054700E-24
  1.7100000E-03    9.0135523E-25
  1.7450000E-03    8.6860143E-25
  1.7800000E-03    1.2183832E-24
  1.8150000E-03    1.1229788E-24
  1.8500000E-03    5.9720744E-25
  1.8850000E-03    9.6302897E-25
  1.9200000E-03    1.6530208E-24
  1.9550000E-03    8.1074706E-25
  1.9900000E-03    5.3910095E-26
  2.0250001E-03    1.6363208E-24
  2.0600001E-03    2.2185338E-24
  2.0949999E-03   -3.9611879E-25
  2.1299999E-03   -3.4575894E-25
  2.1650000E-03    3.5574215E-24
  2.2000000E-03    2.1168729E-24
  2.2350000E-03   -3.1802862E-24
  2.2700001E-03    7.9441597E-25
  2.3050001E-03    7.2542000E-24
  2.3399999E-03   -8.5898699E-25
  2.3749999E-03   -7.6342416E-24
  2.4100000E-03    6.7117438E-24
  2.4450000E-03    1.1952141E-23
  2.4800000E-03   -1.1141632E-23
  2.5150001E-03   -1.1505548E-23
  2.5500001E-03    2.3021804E-23
  2.5849999E-03    1.3140467E-23
  2.6199999E-03   -3.5132936E-23
  2.6550000E-03   -7.1529852E-24
  2.6900000E-03    5.5811486E-23
  2.7250000E-03   -7.5275252E-25
  2.7600001E-03   -7.6318702E-23
  2.7950001E-03    2.1410750E-23
  2.8299999E-03    1.0176912E-22
  2.8649999E-03   -5.0012478E-23
  2.9000000E-03   -1.1738484E-22
  2.9350000E-03    9.7807052E-23
  2.9700000E-03    1.1775601E-22
  3.0050001E-03   -1.5978148E-22
  3.0400001E-03   -7.0730676E-23
  3.0749999E-03    2.4665411E-22
  3.1099999E-03   -5.6431392E-23
  3.1450000E-03   -3.5387013E-22
  3.1800000E-03    3.3689798E-22
  3.2150000E-03    4.9699277E-22
  3.2500001E-03   -8.6192210E-22
  3.2850001E-03   -6.8765114E-22
  3.3199999E-03    1.7832944E-21
  3.3549999E-03    9.8125694E-22
  3.3900000E-03   -3.2896294E-21
  3.4250000E-03   -1.4723047E-21
  3.4600000E-03    5.6385938E-21
  3.4950001E-03    2.3693866E-21
  3.5300001E-03   -9.1056510E-21
  3.5649999E-03   -4.0244413E-21
  3.5999999E-03    1.3958754E-20
  3.6350000E-03    7.0414016E-21
  3.6700000E-03   -2.0303930E-20
  3.7050000E-03   -1.2324044E-20
  3.7400001E-03    2.7892737E-20
  3.7750001E-03    2.1159511E-20
  3.8099999E-03   -3.5721459E-20
  3.8449999E-03   -3.5144743E-20
  3.8800000E-03    4.1513891E-20
  3.9149998E-03    5.5977154E-20
  3.9499998E-03   -4.0944516E-20
  3.9849998E-03   -8.4811979E-20
  4.0199999E-03    2.6773943E-20
  4.0549999E-03    1.2109459E-19
  4.0899999E-03    1.2076573E-20
  4.1250000E-03   -1.6046523E-19
  4.1600000E-03   -9.1055557E-20
  4.1950000E-03    1.9161833E-19
  4.2300001E-03    2.2966398E-19
  4.2650001E-03   -1.9184283E-19
  4.3000001E-03   -4.4925130E-19
  4.3350002E-03    1.2156841E-19
  4.3700002E-03    7.6785646E-19
  4.4049998E-03    8.1509040E-20
  4.4399998E-03   -1.1904819E-18
  4.4749998E-03   -5.0689850E-19
  4.5099999E-03    1.6936117E-18
  4.5449999E-03    1.2717351E-18
  4.5799999E-03   -2.2030171E-18
  4.6150000E-03   -2.5124736E-18
  4.6500000E-03    2.5657476E-18
  4.6850001E-03    4.3623094E-18
  4.7200001E-03   -2.5195349E-18
  4.7550001E-03   -6.9075607E-18
  4.7900002E-03    1.6673166E-18
  4.8250002E-03    1.0116667E-17
  4.8600002E-03    5.3073976E-19
  4.8949998E-03   -1.3739056E-17
  4.9299998E-03   -4.7283455E-18
  4.9649999E-03    1.7177208E-17
  4.9999999E-03    1.1603563E-17
  5.0349999E-03   -1.9346888E-17
  5.0700000E-03   -2.1681573E-17
  5.1050000E-03    1.8557519E-17
  5.1400000E-03    3.5047643E-17
  5.1750001E-03   -1.2463203E-17
  5.2100001E-03   -5.0940849E-17
  5.2450001E-03   -1.8416380E-18
  5.2800002E-03    6.7249685E-17
  5.3150002E-03    2.7495497E-17
  5.3500002E-03   -7.9965700E-17
  5.3849998E-03   -6.7216214E-17
  5.4199998E-03    8.2724996E-17
  5.4549999E-03    1.2225220E-16
  5.4899999E-03   -6.6618294E-17
  5.5249999E-03   -1.9092579E-16
  5.5600000E-03    2.0524108E-17
  5.5950000E-03    2.6685773E-16
  5.6300000E-03    6.7741586E-17
  5.6650001E-03   -3.3711345E-16
  5.7000001E-03   -2.0919257E-16
  5.7350001E-03    3.8066751E-16
  5.7700002E-03    4.1015077E-16
  5.8050002E-03   -3.6785206E-16
  5.8400002E-03   -6.6748367E-16
  5.8749998E-03    2.6153116E-16
  5.9099998E-03    9.6294951E-16
  5.9449999E-03   -2.0869029E-17
  5.9799999E-03   -1.2574646E-15
  6.0149999E-03   -3.9156120E-16
  6.0500000E-03    1.4866131E-15
  6.0850000E-03    9.9895053E-16
  6.1200000E-03   -1.5592572E-15
  6.1550001E-03   -1.7960074E-15
  6.1900001E-03    1.3614768E-15
  6.2250001E-03    2.7324982E-15
  6.2600002E-03   -7.6797417E-16
  6.2950002E-03   -3.6970845E-15
  6.3299998E-03   -3.3715336E-16
  6.3649998E-03    4.5053039E-15
  6.3999998E-03    2.0296142E-15
  6.4349999E-03   -4.8967347E-15
  6.4699999E-03   -4.3054744E-15
  6.5049999E-03    4.5471854E-15
  6.5400000E-03    7.0372124E-15
  6.5750000E-03   -3.1009537E-15
  6.6100000E-03   -9.9317739E-15
  6.6450001E-03    2.2696565E-16
  6.6800001E-03    1.2500729E-14
  6.7150001E-03    4.3000775E-15
  6.7500002E-03   -1.4055400E-14
  6.7850002E-03   -1.0497253E-14
  6.8199998E-03    1.3741892E-14
  6.8549998E-03    1.8062602E-14
  6.8899998E-03   -1.0626840E-14
  6.9249999E-03   -2.6274151E-14
  6.9599999E-03    3.8409941E-15
  6.9949999E-03    3.3921626E-14
  7.0300000E-03    7.2208856E-15
  7.0650000E-03   -3.9297863E-14
  7.1000000E-03   -2.2647845E-14
  7.1350001E-03    4.0291067E-14
  7.1700001E-03    4.1743186E-14
  7.2050001E-03   -3.4606012E-14
  7.2400002E-03   -6.2788960E-14
  7.2750002E-03    2.0121329E-14
  7.3099998E-03    8.2905999E-14
  7.3449998E-03    4.6349689E-15
  7.3799998E-03   -9.8055407E-14
  7.4149999E-03   -3.9901408E-14
  7.4499999E-03    1.0326569E-13
  7.4850000E-03    8.4049053E-14
  7.5200000E-03   -9.3182982E-14
  7.5550000E-03   -1.3304254E-13
  7.5900001E-03    6.2962832E-14
  7.6250001E-03    1.8019357E-13
  7.6600001E-03   -9.3965227E-15
  7.6950002E-03   -2.1628993E-13
  7.7300002E-03   -6.7815247E-14
  7.7650002E-03    2.3019084E-13
  7.7999998E-03    1.6469026E-13
  7.8349998E-03   -2.1013967E-13
  7.8699999E-03   -2.7180452E-13
  7.9049999E-03    1.4594006E-13
  7.9399999E-03    3.7394255E-13
  7.9750000E-03   -3.1641963E-14
  8.0100000E-03   -4.5089811E-13
  8.0450000E-03   -1.3182905E-13
  8.0800001E-03    4.7924555E-13
  8.1150001E-03    3.3414263E-13
  8.1500001E-03   -4.3540616E-13
  8.1850002E-03   -5.5349231E-13
  8.2200002E-03    3.0062484E-13
  8.2550002E-03    7.5653703E-13
  8.2900003E-03   -6.7053053E-14
  8.3250003E-03   -9.0164833E-13
  8.3600003E-03   -2.5737919E-13
  8.3950004E-03    9.4426008E-13
  8.4300004E-03    6.4578638E-13
  8.4650004E-03   -8.4344120E-13
  8.5000005E-03   -1.0500217E-12
  8.5349996E-03    5.7167975E-13
  8.5699996E-03    1.4021079E-12
  8.6049996E-03   -1.2738522E-13
  8.6399997E-03   -1.6243094E-12
  8.6749997E-03   -4.5739562E-13
  8.7099997E-03    1.6441863E-12
  8.7449998E-03    1.1178689E-12
  8.7799998E-03   -1.4065718E-12
  8.8149998E-03   -1.7587345E-12
  8.8499999E-03    8.8681449E-13
  8.8849999E-03    2.2582446E-12
  8.9199999E-03   -1.1248080E-13
  8.9550000E-03   -2.4907504E-12
  8.9900000E-03   -8.2459294E-13
  9.0250000E-03    2.3652087E-12
  9.0600001E-03    1.7874087E-12
  9.0950001E-03   -1.8448960E-12
  9.1300001E-03   -2.6199240E-12
  9.1650002E-03    9.4588150E-13
  9.2000002E-03    3.1511827E-12
  9.2350002E-03    2.4128068E-13
  9.2700003E-03   -3.2207611E-12
  9.3050003E-03   -1.5240020E-12
  9.3400003E-03    2.7596445E-12
  9.3750004E-03    2.6612007E-12
  9.4100004E-03   -1.8311843E-12
  9.4450004E-03   -3.4638711E-12
  9.4799995E-03    5.6305389E-13
  9.5149996E-03    3.7961292E-12
  9.5499996E-03    8.8589184E-13
  9.5849996E-03   -3.5324209E-12
  9.6199997E-03   -2.2428819E-12
  9.6549997E-03    2.6770097E-12
  9.6899997E-03    3.1715626E-12
  9.7249998E-03   -1.4956938E-12
  9.7599998E-03   -3.5406534E-12
  9.7949998E-03    3.1703890E-13
  9.8299999E-03    3.4671404E-12
  9.8649999E-03    7.2543393E-13
  9.8999999E-03   -3.0159180E-12
  9.9350000E-03   -1.4963801E-12
  9.9700000E-03    2.2313362E-12
  1.0005000E-02    1.6786866E-12
  1.0040000E-02   -1.5552074E-12
  1.0075000E-02   -1.2932129E-12
  1.0110000E-02    1.5596644E-12
  1.0145000E-02    1.0150409E-12
  1.0180000E-02   -2.1046533E-12
  1.0215000E-02   -1.3147281E-12
  1.0250000E-02    2.6222405E-12
  1.0285000E-02    1.9498975E-12
  1.0320000E-02   -3.1626457E-12
  1.0355000E-02   -3.0594249E-12
  1.0390000E-02    3.7476667E-12
  1.0425000E-02    5.3919638E-12
  1.0460000E-02   -3.0685595E-12
  1.0495000E-02   -8.3203036E-12
  1.0530000E-02    4.3366339E-14
  1.0565000E-02    9.7234009E-12
  1.0600000E-02    4.0458522E-12
  1.0635000E-02   -9.0855734E-12
  1.0670000E-02   -7.7943910E-12
  1.0705000E-02    7.4849476E-12
  1.0740000E-02    1.2094591E-11
  1.0775000E-02   -3.6477804E-12
  1.0810000E-02   -1.6348268E-11
  1.0845000E-02   -4.5337176E-12
  1.0880000E-02    1.6047795E-11
  1.0915000E-02    1.3899600E-11
  1.0950000E-02   -9.5855841E-12
  1.0985000E-02   -1.9190600E-11
  1.1020000E-02    1.4492828E-12
  1.1055000E-02    2.1543328E-11
  1.1090000E-02    7.2675455E-12
  1.1125000E-02   -2.3046114E-11
  1.1160000E-02   -2.0853361E-11
  1.1195000E-02    1.6972417E-11
  1.1230000E-02    3.4911712E-11
  1.1265000E-02    8.9562288E-13
  1.1300000E-02   -3.7200361E-11
  1.1335000E-02   -1.9427560E-11
  1.1370000E-02    2.8974248E-11
  1.1405000E-02    3.0246996E-11
  1.1440000E-02   -2.1410080E-11
  1.1475000E-02   -4.2485404E-11
  1.1510000E-02    8.4422417E-12
  1.1545000E-02    5.6042823E-11
  1.1580000E-02    2.1307262E-11
  1.1615000E-02   -4.9181277E-11
  1.1650000E-02   -4.9508578E-11
  1.1685000E-02    2.0473463E-11
  1.1720000E-02    5.3174378E-11
  1.1755000E-02    1.2037465E-12
  1.1790000E-02   -4.9151346E-11
  1.1825000E-02   -1.4496712E-11
  1.1860000E-02    5.3697432E-11
  1.1895000E-02    4.6545934E-11
  1.1930000E-02   -3.5265523E-11
  1.1965000E-02   -7.7868254E-11
  1.2000000E-02   -1.8694091E-11
  1.2035000E-02    6.1985257E-11
  1.2070000E-02    5.4451433E-11
  1.2105000E-02   -2.3628320E-11
  1.2140000E-02   -5.2235230E-11
  1.2175000E-02    1.3142290E-11
  1.2210000E-02    6.6932307E-11
  1.2245000E-02    7.6577408E-12
  1.2280000E-02   -9.3294809E-11
  1.2315000E-02   -7.8623115E-11
  1.2350000E-02    5.2675468E-11
  1.2385000E-02    1.2045626E-10
  1.2420000E-02    2.7948772E-11
  1.2455000E-02   -8.2095823E-11
  1.2490000E-02   -4.5624834E-11
  1.2525000E-02    6.0303464E-11
  1.2560000E-02    4.2151969E-11
  1.2595000E-02   -8.5846739E-11
  1.2630000E-02   -1.1111848E-10
  1.2665000E-02    3.4398918E-11
  1.2700000E-02    1.5296908E-10
  1.2735000E-02    8.2028266E-11
  1.2770000E-02   -6.5338790E-11
  1.2805000E-02   -9.0233397E-11
  1.2840000E-02   -3.3726047E-12
  1.2875000E-02    2.9143195E-11
  1.2910000E-02   -3.9086685E-11
  1.2945000E-02   -7.8276538E-11
  1.2980000E-02    5.0924521E-12
  1.3015000E-02    1.2680507E-10
  1.3050000E-02    1.3653345E-10
  1.3085000E-02    8.6248318E-12
  1.3120000E-02   -1.2424174E-10
  1.3155000E-02   -1.2584028E-10
  1.3190000E-02   -2.0864643E-11
  1.3225000E-02    4.1041712E-11
  1.3260000E-02    2.4363682E-13
  1.3295000E-02   -2.0018723E-11
  1.3330000E-02    8.1177357E-11
  1.3365000E-02    1.7662945E-10
  1.3400000E-02    7.5251222E-11
  1.3435000E-02   -1.5280793E-10
  1.3470000E-02   -2.2955418E-10
  1.3505000E-02   -7.1298883E-11
  1.3540000E-02    8.9205525E-11
  1.3575000E-02    6.9744842E-11
  1.3610000E-02    2.7199430E-12
  1.3645000E-02    7.0982886E-11
  1.3680000E-02    1.7173415E-10
  1.3715000E-02    8.0922657E-11
  1.3750000E-02   -1.5508216E-10
  1.3785000E-02   -2.5552035E-10
  1.3820000E-02   -1.1496563E-10
  1.3855000E-02    6.6322614E-11
  1.3890000E-02    1.0573446E-10
  1.3925000E-02    7.3754156E-11
  1.3960000E-02    1.0377328E-10
  1.3995000E-02    1.4404609E-10
  1.4030000E-02    5.7622646E-11
  1.4065000E-02   -1.2850455E-10
  1.4100000E-02   -2.3580893E-10
  1.4135000E-02   -1.6634663E-10
  1.4170000E-02   -8.5002356E-13
  1.4205000E-02    1.2855919E-10
  1.4240000E-02    1.7265882E-10
  1.4275000E-02    1.6393291E-10
  1.4310000E-02    1.3650552E-10
  1.4345000E-02    6.8999938E-11
  1.4380000E-02   -7.7095344E-11
  1.4415000E-02   -2.4036056E-10
  1.4450000E-02   -2.4709332E-10
  1.4485000E-02   -2.3863545E-11
  1.4520000E-02    2.3605870E-10
  1.4555000E-02    2.9161246E-10
  1.4590000E-02    1.9387120E-10
  1.4625000E-02    1.6788282E-10
  1.4660000E-02    1.8963855E-10
  1.4695000E-02    2.6249818E-11
  1.4730000E-02   -2.6027966E-10
  1.4765000E-02   -2.7084415E-10
  1.4800000E-02    1.0679717E-10
  1.4835000E-02    4.5172283E-10
  1.4870000E-02    4.3627552E-10
  1.4905000E-02    2.9375383E-10
  1.4940000E-02    3.3904740E-10
  1.4975000E-02    4.1504286E-10
  1.5010000E-02    2.3806959E-10
  1.5045000E-02   -1.7940059E-11
  1.5080000E-02    4.4878896E-11
  1.5115000E-02    4.2289686E-10
  1.5150000E-02    7.4666262E-10
  1.5185000E-02    8.2509422E-10
  1.5220000E-02    7.9821533E-10
  1.5255000E-02    8.2331986E-10
  1.5290000E-02    8.9591840E-10
  1.5325000E-02    9.4583363E-10
  1.5360000E-02    9.3808450E-10
  1.5395000E-02    9.4039965E-10
  1.5430000E-02    1.1375300E-09
  1.5465000E-02    1.6003310E-09
  1.5500000E-02    2.0542865E-09
  1.5535000E-02    2.1834545E-09
  1.5570000E-02    2.1391868E-09
  1.5605000E-02    2.3438784E-09
  1.5640000E-02    2.8082419E-09
  1.5675001E-02    3.1316592E-09
  1.5710000E-02    3.2220464E-09
  1.5745001E-02    3.4859644E-09
  1.5780000E-02    4.1499177E-09
  1.5814999E-02    4.8926685E-09
  1.5850000E-02    5.3942357E-09
  1.5884999E-02    5.8079044E-09
  1.5920000E-02    6.4115580E-09
  1.5954999E-02    7.1761344E-09
  1.5990000E-02    7.9396578E-09
  1.6024999E-02    8.7016039E-09
  1.6060000E-02    9.5643573E-09
  1.6094999E-02    1.0587894E-08
  1.6130000E-02    1.1755175E-08
  1.6164999E-02    1.2971381E-08
  1.6200000E-02    1.4180690E-08
  1.6235000E-02    1.5532532E-08
  1.6270000E-02    1.7241465E-08
  1.6305000E-02    1.9211916E-08
  1.6340001E-02    2.1080981E-08
  1.6375000E-02    2.2786828E-08
  1.6410001E-02    2.4733573E-08
  1.6445000E-02    2.7133501E-08
  1.6480001E-02    2.9683946E-08
  1.6515000E-02    3.2248138E-08
  1.6550001E-02    3.5224009E-08
  1.6585000E-02    3.8813191E-08
  1.6620001E-02    4.2604380E-08
  1.6655000E-02    4.6280267E-08
  1.6690001E-02    5.0088499E-08
  1.6725000E-02    5.4271773E-08
  1.6759999E-02    5.8658323E-08
  1.6795000E-02    6.3231617E-08
  1.6829999E-02    6.8507781E-08
  1.6865000E-02    7.4742758E-08
  1.6899999E-02    8.1356497E-08
  1.6935000E-02    8.7881105E-08
  1.6969999E-02    9.4738589E-08
  1.7005000E-02    1.0232243E-07
  1.7039999E-02    1.1027566E-07
  1.7075000E-02    1.1833443E-07
  1.7109999E-02    1.2696333E-07
  1.7145000E-02    1.3664169E-07
  1.7180000E-02    1.4720871E-07
  1.7215000E-02    1.5828969E-07
  1.7250000E-02    1.6996684E-07
  1.7285001E-02    1.8247523E-07
  1.7320000E-02    1.9553798E-07
  1.7355001E-02    2.0892382E-07
  1.7390000E-02    2.2315086E-07
  1.7425001E-02    2.3853158E-07
  1.7460000E-02    2.5457086E-07
  1.7495001E-02    2.7125026E-07
  1.7530000E-02    2.8931117E-07
  1.7565001E-02    3.0883274E-07
  1.7600000E-02    3.2916222E-07
  1.7635001E-02    3.5004516E-07
  1.7670000E-02    3.7182892E-07
  1.7704999E-02    3.9484647E-07
  1.7740000E-02    4.1886182E-07
  1.7774999E-02    4.4356523E-07
  1.7810000E-02    4.6971533E-07
  1.7844999E-02    4.9804254E-07
  1.7880000E-02    5.2753643E-07
  1.7914999E-02    5.5733796E-07
  1.7950000E-02    5.8846894E-07
  1.7984999E-02    6.2153612E-07
  1.8020000E-02    6.5578337E-07
  1.8054999E-02    6.9096126E-07
  1.8090000E-02    7.2734014E-07
  1.8124999E-02    7.6518216E-07
  1.8160000E-02    8.0500411E-07
  1.8195000E-02    8.4652760E-07
  1.8230001E-02    8.8898594E-07
  1.8265000E-02    9.3276901E-07
  1.8300001E-02    9.7799170E-07
  1.8335000E-02    1.0241204E-06
  1.8370001E-02    1.0722209E-06
  1.8405000E-02    1.1228237E-06
  1.8440001E-02    1.1741083E-06
  1.8475000E-02    1.2259826E-06
  1.8510001E-02    1.2800072E-06
  1.8545000E-02    1.3355689E-06
  1.8580001E-02    1.3921247E-06
  1.8615000E-02    1.4505156E-06
  1.8650001E-02    1.5099960E-06
  1.8685000E-02    1.5702925E-06
  1.8719999E-02    1.6327413E-06
  1.8755000E-02    1.6964399E-06
  1.8789999E-02    1.7606776E-06
  1.8825000E-02    1.8271041E-06
  1.8859999E-02    1.8946571E-06
  1.8895000E-02    1.9616341E-06
  1.8929999E-02    2.0303701E-06
  1.8965000E-02    2.1010467E-06
  1.8999999E-02    2.1713206E-06
  1.9035000E-02    2.2428726E-06
  1.9069999E-02    2.3164157E-06
  1.9105000E-02    2.3892621E-06
  1.9140000E-02    2.4629283E-06
  1.9175000E-02    2.5387335E-06
  1.9210000E-02    2.6133464E-06
  1.9245001E-02    2.6877090E-06
  1.9280000E-02    2.7642277E-06
  1.9315001E-02    2.8397435E-06
  1.9350000E-02    2.9147004E-06
  1.9385001E-02    2.9920823E-06
  1.9420000E-02    3.0682161E-06
  1.9455001E-02    3.1427130E-06
  1.9490000E-02    3.2200164E-06
  1.9525001E-02    3.2966220E-06
  1.9560000E-02    3.3699660E-06
  1.9595001E-02    3.4448340E-06
  1.9630000E-02    3.5193289E-06
  1.9664999E-02    3.5904443E-06
  1.9700000E-02    3.6630192E-06
  1.9734999E-02    3.7353589E-06
  1.9770000E-02    3.8034752E-06
  1.9804999E-02    3.8732151E-06
  1.9840000E-02    3.9439146E-06
  1.9874999E-02    4.0090054E-06
  1.9910000E-02    4.0736527E-06
  1.9944999E-02    4.1397284E-06
  1.9980000E-02    4.2001625E-06
  2.0014999E-02    4.2588499E-06
  2.0050000E-02    4.3193700E-06
  2.0085000E-02    4.3749301E-06
  2.0120000E-02    4.4286412E-06
  2.0155000E-02    4.4850017E-06
  2.0190001E-02    4.5362062E-06
  2.0225000E-02    4.5837673E-06
  2.0260001E-02    4.6334003E-06
  2.0295000E-02    4.6770006E-06
  2.0330001E-02    4.7155995E-06
  2.0365000E-02    4.7585327E-06
  2.0400001E-02    4.7979142E-06
  2.0435000E-02    4.8299630E-06
  2.0470001E-02    4.8645534E-06
  2.0505000E-02    4.8976208E-06
  2.0540001E-02    4.9245132E-06
  2.0575000E-02    4.9535747E-06
  2.0609999E-02    4.9806540E-06
  2.0645000E-02    5.0001440E-06
  2.0679999E-02    5.0214589E-06
  2.0715000E-02    5.0417966E-06
  2.0749999E-02    5.0541512E-06
  2.0785000E-02    5.0691151E-06
  2.0819999E-02    5.0858721E-06
  2.0855000E-02    5.0941389E-06
  2.0889999E-02    5.1031843E-06
  2.0925000E-02    5.1155475E-06
  2.0959999E-02    5.1201523E-06
  2.0995000E-02    5.1240254E-06
  2.1029999E-02    5.1315883E-06
  2.1065000E-02    5.1319403E-06
  2.1100000E-02    5.1308512E-06
  2.1135001E-02    5.1345542E-06
  2.1170000E-02    5.1325951E-06
  2.1205001E-02    5.1298352E-06
  2.1240000E-02    5.1333200E-06
  2.1275001E-02    5.1308471E-06
  2.1310000E-02    5.1254251E-06
  2.1345001E-02    5.1267939E-06
  2.1380000E-02    5.1228681E-06
  2.1415001E-02    5.1143297E-06
  2.1450000E-02    5.1136453E-06
  2.1485001E-02    5.1098405E-06
  2.1520000E-02    5.0999538E-06
  2.1555001E-02    5.0972926E-06
  2.1590000E-02    5.0930753E-06
  2.1624999E-02    5.0823473E-06
  2.1660000E-02    5.0786862E-06
  2.1694999E-02    5.0742556E-06
  2.1730000E-02    5.0620010E-06
  2.1764999E-02    5.0569288E-06
  2.1800000E-02    5.0525446E-06
  2.1834999E-02    5.0378940E-06
  2.1870000E-02    5.0292415E-06
  2.1904999E-02    5.0245485E-06
  2.1940000E-02    5.0092781E-06
  2.1974999E-02    4.9977243E-06
  2.2010000E-02    4.9921659E-06
  2.2045000E-02    4.9763321E-06
  2.2080000E-02    4.9617270E-06
  2.2115000E-02    4.9546511E-06
  2.2150001E-02    4.9387895E-06
  2.2185000E-02    4.9220521E-06
  2.2220001E-02    4.9125420E-06
  2.2255000E-02    4.8946276E-06
  2.2290001E-02    4.8754173E-06
  2.2325000E-02    4.8663328E-06
  2.2360001E-02    4.8507382E-06
  2.2395000E-02    4.8316515E-06
  2.2430001E-02    4.8237280E-06
  2.2465000E-02    4.8117658E-06
  2.2500001E-02    4.7948661E-06
  2.2535000E-02    4.7903859E-06
  2.2569999E-02    4.7848985E-06
  2.2605000E-02    4.7710641E-06
  2.2639999E-02    4.7671174E-06
  2.2675000E-02    4.7662511E-06
  2.2709999E-02    4.7588132E-06
  2.2745000E-02    4.7603226E-06
  2.2779999E-02    4.7662511E-06
  2.2815000E-02    4.7650205E-06
  2.2849999E-02    4.7715644E-06
  2.2885000E-02    4.7853882E-06
  2.2919999E-02    4.7925546E-06
  2.2955000E-02    4.8043526E-06
  2.2990000E-02    4.8237616E-06
  2.3025000E-02    4.8374050E-06
  2.3060000E-02    4.8533884E-06
  2.3095001E-02    4.8763086E-06
  2.3130000E-02    4.8938441E-06
  2.3165001E-02    4.9123632E-06
  2.3200000E-02    4.9375667E-06
  2.3235001E-02    4.9565142E-06
  2.3270000E-02    4.9724072E-06
  2.3305001E-02    4.9926289E-06
  2.3340000E-02    5.0069752E-06
  2.3375001E-02    5.0176477E-06
  2.3410000E-02    5.0310687E-06
  2.3445001E-02    5.0354383E-06
  2.3480000E-02    5.0321614E-06
  2.3514999E-02    5.0322560E-06
  2.3550000E-02    5.0257122E-06
  2.3584999E-02    5.0089343E-06
  2.3620000E-02    4.9926612E-06
  2.3654999E-02    4.9706050E-06
  2.3690000E-02    4.9375349E-06
  2.3724999E-02    4.9033411E-06
  2.3760000E-02    4.8653496E-06
  2.3794999E-02    4.8174779E-06
  2.3830000E-02    4.7658032E-06
  2.3864999E-02    4.7094059E-06
  2.3900000E-02    4.6463829E-06
  2.3934999E-02    4.5822876E-06
  2.3970000E-02    4.5122665E-06
  2.4005000E-02    4.4347212E-06
  2.4040001E-02    4.3610262E-06
  2.4075000E-02    4.2871625E-06
  2.4110001E-02    4.2055976E-06
  2.4145000E-02    4.1278277E-06
  2.4180001E-02    4.0546856E-06
  2.4215000E-02    3.9768452E-06
  2.4250001E-02    3.9037964E-06
  2.4285000E-02    3.8394646E-06
  2.4320001E-02    3.7728560E-06
  2.4355000E-02    3.7101418E-06
  2.4390001E-02    3.6591091E-06
  2.4425000E-02    3.6101142E-06
  2.4460001E-02    3.5646933E-06
  2.4495000E-02    3.5310811E-06
  2.4529999E-02    3.5016988E-06
  2.4565000E-02    3.4748589E-06
  2.4599999E-02    3.4590234E-06
  2.4635000E-02    3.4506538E-06
  2.4669999E-02    3.4451564E-06
  2.4705000E-02    3.4450454E-06
  2.4739999E-02    3.4476161E-06
  2.4775000E-02    3.4524912E-06
  2.4809999E-02    3.4622144E-06
  2.4845000E-02    3.4699603E-06
  2.4879999E-02    3.4742166E-06
  2.4915000E-02    3.4820059E-06
  2.4950000E-02    3.4866323E-06
  2.4985000E-02    3.4800837E-06
  2.5020000E-02    3.4702039E-06
  2.5055001E-02    3.4564330E-06
  2.5090000E-02    3.4268278E-06
  2.5125001E-02    3.3841598E-06
  2.5160000E-02    3.3340493E-06
  2.5195001E-02    3.2672897E-06
  2.5230000E-02    3.1805860E-06
  2.5265001E-02    3.0802382E-06
  2.5300000E-02    2.9611906E-06
  2.5335001E-02    2.8173499E-06
  2.5370000E-02    2.6550881E-06
  2.5405001E-02    2.4744033E-06
  2.5440000E-02    2.2685340E-06
  2.5474999E-02    2.0424307E-06
  2.5510000E-02    1.7986040E-06
  2.5544999E-02    1.5282267E-06
  2.5580000E-02    1.2338126E-06
  2.5614999E-02    9.2254214E-07
  2.5650000E-02    5.8795735E-07
  2.5684999E-02    2.3089864E-07
  2.5720000E-02   -1.3865427E-07
  2.5754999E-02   -5.2544999E-07
  2.5790000E-02   -9.3184360E-07
  2.5824999E-02   -1.3473675E-06
  2.5860000E-02   -1.7742489E-06
  2.5895000E-02   -2.2156253E-06
  2.5930000E-02   -2.6605396E-06
  2.5965000E-02   -3.1105446E-06
  2.6000001E-02   -3.5701325E-06
  2.6035000E-02   -4.0250329E-06
  2.6070001E-02   -4.4726389E-06
  2.6105000E-02   -4.9212213E-06
  2.6140001E-02   -5.3606177E-06
  2.6175000E-02   -5.7867596E-06
  2.6210001E-02   -6.2058975E-06
  2.6245000E-02   -6.6046837E-06
  2.6280001E-02   -6.9769762E-06
  2.6315000E-02   -7.3335059E-06
  2.6350001E-02   -7.6622182E-06
  2.6385000E-02   -7.9515776E-06
  2.6419999E-02   -8.2141269E-06
  2.6455000E-02   -8.4422873E-06
  2.6489999E-02   -8.6183818E-06
  2.6525000E-02   -8.7509679E-06
  2.6559999E-02   -8.8382994E-06
  2.6595000E-02   -8.8620127E-06
  2.6629999E-02   -8.8240677E-06
  2.6665000E-02   -8.7244953E-06
  2.6699999E-02   -8.5478450E-06
  2.6735000E-02   -8.2914912E-06
  2.6769999E-02   -7.9529173E-06
  2.6805000E-02   -7.5188495E-06
  2.6839999E-02   -6.9850648E-06
  2.6875000E-02   -6.3436337E-06
  2.6910000E-02   -5.5774713E-06
  2.6945001E-02   -4.6812829E-06
  2.6980000E-02   -3.6468309E-06