 -4.8000002E-03    1.0000000E-24
 -4.7650002E-03    1.0000002E-24
 -4.7300002E-03    1.0000001E-24
 -4.6950001E-03    1.0000001E-24
 -4.6600001E-03    1.0000003E-24
 -4.6250001E-03    1.0000001E-24
 -4.5900000E-03    9.9999992E-25
 -4.5550000E-03    1.0000003E-24
 -4.5200000E-03    1.0000001E-24
 -4.4849999E-03    9.9999953E-25
 -4.4499999E-03    1.0000002E-24
 -4.4149999E-03    1.0000007E-24
 -4.3799998E-03    1.0000003E-24
 -4.3449998E-03    1.0000000E-24
 -4.3100002E-03    1.0000001E-24
 -4.2750002E-03    1.0000000E-24
 -4.2400002E-03    1.0000000E-24
 -4.2050001E-03    1.0000001E-24
 -4.1700001E-03    9.9999982E-25
 -4.1350001E-03    1.0000003E-24
 -4.1000000E-03    1.0000009E-24
 -4.0650000E-03    1.0000002E-24
 -4.0300000E-03    9.9999943E-25
 -3.9949999E-03    9.9999963E-25
 -3.9599999E-03    1.0000001E-24
 -3.9249999E-03    1.0000000E-24
 -3.8900001E-03    9.9999992E-25
 -3.8550000E-03    1.0000000E-24
 -3.8200000E-03    1.0000005E-24
 -3.7849999E-03    1.0000008E-24
 -3.7499999E-03    9.9999992E-25
 -3.7150001E-03    9.9999923E-25
 -3.6800001E-03    9.9999992E-25
 -3.6450000E-03    1.0000007E-24
 -3.6100000E-03    1.0000004E-24
 -3.5750000E-03    9.9999982E-25
 -3.5399999E-03    1.0000002E-24
 -3.5049999E-03    1.0000004E-24
 -3.4700001E-03    9.9999982E-25
 -3.4350001E-03    9.9999953E-25
 -3.4000000E-03    9.9999992E-25
 -3.3650000E-03    1.0000003E-24
 -3.3300000E-03    1.0000008E-24
 -3.2949999E-03    1.0000006E-24
 -3.2599999E-03    9.9999953E-25
 -3.2250001E-03    9.9999943E-25
 -3.1900001E-03    1.0000007E-24
 -3.1550000E-03    1.0000004E-24
 -3.1200000E-03    9.9999884E-25
 -3.0850000E-03    1.0000000E-24
 -3.0499999E-03    1.0000015E-24
 -3.0149999E-03    1.0000001E-24
 -2.9800001E-03    9.9999933E-25
 -2.9450001E-03    1.0000007E-24
 -2.9100000E-03    1.0000008E-24
 -2.8750000E-03    9.9999933E-25
 -2.8400000E-03    9.9999972E-25
 -2.8049999E-03    1.0000002E-24
 -2.7699999E-03    9.9999992E-25
 -2.7350001E-03    1.0000001E-24
 -2.7000001E-03    1.0000006E-24
 -2.6650000E-03    9.9999992E-25
 -2.6300000E-03    9.9999903E-25
 -2.5950000E-03    9.9999992E-25
 -2.5599999E-03    1.0000009E-24
 -2.5249999E-03    1.0000006E-24
 -2.4900001E-03    9.9999992E-25
 -2.4550001E-03    1.0000000E-24
 -2.4200000E-03    1.0000006E-24
 -2.3850000E-03    1.0000009E-24
 -2.3500000E-03    1.0000002E-24
 -2.3149999E-03    9.9999943E-25
 -2.2799999E-03    9.9999943E-25
 -2.2450001E-03    9.9999992E-25
 -2.2100001E-03    9.9999982E-25
 -2.1750000E-03    9.9999982E-25
 -2.1400000E-03    1.0000000E-24
 -2.1050000E-03    1.0000001E-24
 -2.0699999E-03    1.0000003E-24
 -2.0349999E-03    1.0000007E-24
 -2.0000001E-03    1.0000005E-24
 -1.9650001E-03    1.0000000E-24
 -1.9300000E-03    9.9999963E-25
 -1.8950000E-03    1.0000000E-24
 -1.8600000E-03    1.0000005E-24
 -1.8250000E-03    9.9999992E-25
 -1.7900000E-03    9.9999972E-25
 -1.7550000E-03    1.0000010E-24
 -1.7199999E-03    1.0000013E-24
 -1.6850000E-03    9.9999972E-25
 -1.6500000E-03    9.9999893E-25
 -1.6150000E-03    1.0000000E-24
 -1.5800000E-03    1.0000003E-24
 -1.5450000E-03    9.9999913E-25
 -1.5100000E-03    9.9999953E-25
 -1.4750001E-03    1.0000012E-24
 -1.4400000E-03    1.0000005E-24
 -1.4050000E-03    9.9999943E-25
 -1.3700000E-03    1.0000003E-24
 -1.3350000E-03    1.0000005E-24
 -1.3000000E-03    9.9999953E-25
 -1.2650000E-03    1.0000004E-24
 -1.2300001E-03    1.0000012E-24
 -1.1950000E-03    9.9999943E-25
 -1.1600000E-03    9.9999933E-25
 -1.1250000E-03    1.0000012E-24
 -1.0900000E-03    1.0000006E-24
 -1.0550000E-03    9.9999933E-25
 -1.0200000E-03    1.0000008E-24
 -9.8500005E-04    1.0000010E-24
 -9.5000002E-04    9.9999923E-25
 -9.1499998E-04    9.9999893E-25
 -8.8000001E-04    1.0000000E-24
 -8.4499997E-04    1.0000000E-24
 -8.1000000E-04    1.0000003E-24
 -7.7500002E-04    1.0000005E-24
 -7.3999999E-04    1.0000000E-24
 -7.0500001E-04    1.0000001E-24
 -6.6999998E-04    1.0000007E-24
 -6.3500000E-04    1.0000004E-24
 -6.0000003E-04    1.0000002E-24
 -5.6499999E-04    9.9999982E-25
 -5.3000002E-04    9.9999963E-25
 -4.9499999E-04    1.0000003E-24
 -4.6000001E-04    1.0000007E-24
 -4.2500001E-04    9.9999972E-25
 -3.9000000E-04    9.9999982E-25
 -3.5500000E-04    1.0000005E-24
 -3.1999999E-04    1.0000000E-24
 -2.8499999E-04    9.9999982E-25
 -2.5000001E-04    9.9999933E-25
 -2.1499999E-04    9.9999923E-25
 -1.8000000E-04    1.0000006E-24
 -1.4500000E-04    1.0000015E-24
 -1.1000000E-04    9.9999972E-25
 -7.5000004E-05    9.9999933E-25
 -3.9999999E-05    1.0000010E-24
 -4.9999999E-06    1.0000000E-24
  2.9999999E-05    9.9999893E-25
  6.5000000E-05    1.0000001E-24
  9.9999997E-05    1.0000007E-24
  1.3499999E-04    1.0000002E-24
  1.7000000E-04    1.0000003E-24
  2.0500000E-04    1.0000006E-24
  2.3999999E-04    9.9999953E-25
  2.7500000E-04    9.9999884E-25
  3.1000000E-04    1.0000002E-24
  3.4500001E-04    1.0000012E-24
  3.8000001E-04    9.9999972E-25
  4.1499999E-04    9.9999992E-25
  4.4999999E-04    1.0000024E-24
  4.8500000E-04    1.0000015E-24
  5.2000000E-04    9.9999815E-25
  5.5499998E-04    9.9999874E-25
  5.9000001E-04    1.0000012E-24
  6.2499999E-04    1.0000000E-24
  6.6000002E-04    9.9999913E-25
  6.9500000E-04    1.0000015E-24
  7.3000003E-04    1.0000012E-24
  7.6500000E-04    9.9999913E-25
  7.9999998E-04    9.9999913E-25
  8.3500001E-04    9.9999953E-25
  8.6999999E-04    9.9999953E-25
  9.0500002E-04    1.0000012E-24
  9.4000000E-04    1.0000019E-24
  9.7499997E-04    9.9999992E-25
  1.0100000E-03    9.9999884E-25
  1.0450000E-03    1.0000001E-24
  1.0800000E-03    1.0000007E-24
  1.1150000E-03    9.9999943E-25
  1.1500000E-03    9.9999874E-25
  1.1849999E-03    9.9999963E-25
  1.2200000E-03    1.0000008E-24
  1.2550000E-03    1.0000010E-24
  1.2900000E-03    9.9999982E-25
  1.3250000E-03    9.9999972E-25
  1.3600000E-03    1.0000013E-24
  1.3950000E-03    1.0000011E-24
  1.4299999E-03    9.9999913E-25
  1.4650000E-03    9.9999963E-25
  1.5000000E-03    1.0000016E-24
  1.5350000E-03    1.0000008E-24
  1.5700000E-03    9.9999972E-25
  1.6050000E-03    1.0000001E-24
  1.6400000E-03    9.9999972E-25
  1.6749999E-03    9.9999834E-25
  1.7100000E-03    9.9999933E-25
  1.7450000E-03    1.0000013E-24
  1.7800000E-03    1.0000004E-24
  1.8150000E-03    9.9999874E-25
  1.8500000E-03    1.0000005E-24
  1.8850000E-03    1.0000026E-24
  1.9200000E-03    9.9999972E-25
  1.9550000E-03    9.9999755E-25
  1.9900000E-03    1.0000013E-24
  2.0250001E-03    1.0000030E-24
  2.0600001E-03    9.9999893E-25
  2.0949999E-03    9.9999815E-25
  2.1299999E-03    1.0000011E-24
  2.1650000E-03    1.0000010E-24
  2.2000000E-03    1.0000027E-24
  2.2350000E-03    1.0000026E-24
  2.2700001E-03    9.9999499E-25
  2.3050001E-03    9.9999716E-25
  2.3399999E-03    1.0000136E-24
  2.3749999E-03    1.0000000E-24
  2.4100000E-03    9.9997606E-25
  2.4450000E-03    1.0000043E-24
  2.4800000E-03    1.0000265E-24
  2.5150001E-03    1.0000209E-24
  2.5500001E-03    9.9995614E-25
  2.5849999E-03    9.9998474E-25
  2.6199999E-03    1.0000429E-24
  2.6550000E-03    1.0000183E-24
  2.6900000E-03    9.9996728E-25
  2.7250000E-03    1.0000315E-24
  2.7600001E-03    1.0001299E-24
  2.7950001E-03    9.9996639E-25
  2.8299999E-03    9.9978821E-25
  2.8649999E-03    9.9998661E-25
  2.9000000E-03    1.0002318E-24
  2.9350000E-03    1.0002555E-24
  2.9700000E-03    9.9981898E-25
  3.0050001E-03    9.9972786E-25
  3.0400001E-03    1.0000652E-24
  3.0749999E-03    9.9931144E-25
  3.1099999E-03    9.9929685E-25
  3.1450000E-03    1.0001691E-24
  3.1800000E-03    1.0006888E-24
  3.2150000E-03    1.0018577E-24
  3.2500001E-03    1.0014961E-24
  3.2850001E-03    9.9295313E-25
  3.3199999E-03    9.9470597E-25
  3.3549999E-03    1.0061277E-24
  3.3900000E-03    1.0060388E-24
  3.4250000E-03    9.9098975E-25
  3.4600000E-03    1.0016501E-24
  3.4950001E-03    1.0205574E-24
  3.5300001E-03    9.9377965E-25
  3.5649999E-03    9.6663258E-25
  3.5999999E-03    1.0106913E-24
  3.6350000E-03    1.0258840E-24
  3.6700000E-03    9.9531172E-25
  3.7050000E-03    9.0459331E-25
  3.7400001E-03    1.0544674E-24
  3.7750001E-03    1.1013982E-24
  3.8099999E-03    8.9133118E-25
  3.8449999E-03    9.2925675E-25
  3.8800000E-03    1.1049605E-24
  3.9149998E-03    1.1380050E-24
  3.9499998E-03    1.0412052E-24
  3.9849998E-03    9.1747442E-25
  4.0199999E-03    1.3776981E-24
  4.0549999E-03    9.1791303E-25
  4.0899999E-03    4.2759392E-25
  4.1250000E-03    8.2901363E-25
  4.1600000E-03    2.1575324E-24
  4.1950000E-03    1.9607128E-24
  4.2300001E-03   -7.4681817E-25
  4.2650001E-03    1.7994606E-24
  4.3000001E-03    3.0530436E-24
  4.3350002E-03   -2.1179416E-24
  4.3700002E-03   -4.3956221E-24
  4.4049998E-03    1.8921519E-24
  4.4399998E-03    4.8432182E-24
  4.4749998E-03   -4.1182006E-24
  4.5099999E-03   -6.2171090E-24
  4.5449999E-03    2.5215769E-25
  4.5799999E-03    1.0492887E-23
  4.6150000E-03    1.2510106E-23
  4.6500000E-03   -1.0838330E-23
  4.6850001E-03   -1.2774305E-23
  4.7200001E-03    5.1405703E-24
  4.7550001E-03    2.7171162E-23
  4.7900002E-03   -5.7033740E-24
  4.8250002E-03   -5.1273580E-23
  4.8600002E-03   -2.4044317E-24
  4.8949998E-03    4.5451909E-23
  4.9299998E-03    1.3337002E-23
  4.9649999E-03   -1.4417523E-23
  4.9999999E-03    3.6611729E-23
  5.0349999E-03    5.1782859E-23
  5.0700000E-03    7.8859135E-24
  5.1050000E-03   -1.0265142E-22
  5.1400000E-03   -1.6172485E-22
  5.1750001E-03    4.0520153E-23
  5.2100001E-03    1.6062441E-22
  5.2450001E-03   -6.9915145E-23
  5.2800002E-03   -4.8830687E-22
  5.3150002E-03   -4.5631683E-22
  5.3500002E-03    6.1439163E-22
  5.3849998E-03    8.7226741E-22
  5.4199998E-03   -5.8743955E-22
  5.4549999E-03   -1.1904416E-21
  5.4899999E-03    4.9084990E-22
  5.5249999E-03    1.5609908E-21
  5.5600000E-03   -1.2264210E-22
  5.5950000E-03   -1.7097183E-21
  5.6300000E-03    8.8349614E-22
  5.6650001E-03    2.6978988E-21
  5.7000001E-03    1.8181448E-21
  5.7350001E-03   -2.0560731E-21
  5.7700002E-03   -3.8711746E-21
  5.8050002E-03   -3.1871132E-22
  5.8400002E-03    2.6822192E-21
  5.8749998E-03    1.1141614E-22
  5.9099998E-03   -7.3177777E-21
  5.9449999E-03   -5.2615509E-21
  5.9799999E-03    6.9665095E-21
  6.0149999E-03    6.3697536E-21
  6.0500000E-03   -7.8799228E-21
  6.0850000E-03   -1.4372103E-20
  6.1200000E-03    2.0297662E-22
  6.1550001E-03    1.7420587E-20
  6.1900001E-03    1.2439585E-20
  6.2250001E-03   -1.1588850E-20
  6.2600002E-03   -2.5589991E-20
  6.2950002E-03    7.7308736E-21
  6.3299998E-03    3.1310062E-20
  6.3649998E-03    2.1527775E-21
  6.3999998E-03   -6.8328893E-20
  6.4349999E-03   -4.3391313E-20
  6.4699999E-03    7.5784821E-20
  6.5049999E-03    8.2384262E-20
  6.5400000E-03   -8.4669510E-20
  6.5750000E-03   -1.3810911E-19
  6.6100000E-03    5.8400166E-20
  6.6450001E-03    1.8286302E-19
  6.6800001E-03    6.2111094E-21
  6.7150001E-03   -2.8878020E-19
  6.7500002E-03   -1.6972125E-19
  6.7850002E-03    3.1555511E-19
  6.8199998E-03    4.1105482E-19
  6.8549998E-03   -2.0145357E-19
  6.8899998E-03   -6.5789753E-19
  6.9249999E-03   -2.8358552E-21
  6.9599999E-03    8.4417307E-19
  6.9949999E-03    3.1506855E-19
  7.0300000E-03   -1.0740203E-18
  7.0650000E-03   -8.8750410E-19
  7.1000000E-03    9.5033478E-19
  7.1350001E-03    1.6448415E-18
  7.1700001E-03   -6.9116487E-19
  7.2050001E-03   -2.6268884E-18
  7.2400002E-03   -8.6892247E-20
  7.2750002E-03    3.6599227E-18
  7.3099998E-03    1.4045460E-18
  7.3449998E-03   -4.1767534E-18
  7.3799998E-03   -3.2912164E-18
  7.4149999E-03    4.3371681E-18
  7.4499999E-03    6.1227897E-18
  7.4850000E-03   -3.2566438E-18
  7.5200000E-03   -9.1143458E-18
  7.5550000E-03    6.9792387E-19
  7.5900001E-03    1.1917887E-17
  7.6250001E-03    3.9106378E-18
  7.6600001E-03   -1.3781076E-17
  7.6950002E-03   -1.0361960E-17
  7.7300002E-03    1.3469006E-17
  7.7650002E-03    1.8919467E-17
  7.7999998E-03   -1.0826105E-17
  7.8349998E-03   -2.9664338E-17
  7.8699999E-03    3.3012462E-18
  7.9049999E-03    3.9912854E-17
  7.9399999E-03    1.0488111E-17
  7.9750000E-03   -4.8487829E-17
  8.0100000E-03   -3.0864501E-17
  8.0450000E-03    5.1777701E-17
  8.0800001E-03    5.7976355E-17
  8.1150001E-03   -4.4831737E-17
  8.1500001E-03   -9.0404998E-17
  8.1850002E-03    2.2266850E-17
  8.2200002E-03    1.2276010E-16
  8.2550002E-03    1.5268100E-17
  8.2900003E-03   -1.4839438E-16
  8.3250003E-03   -7.2490873E-17
  8.3600003E-03    1.5940526E-16
  8.3950004E-03    1.5053021E-16
  8.4300004E-03   -1.4381665E-16
  8.4650004E-03   -2.4408176E-16
  8.5000005E-03    8.7873818E-17
  8.5349996E-03    3.4440746E-16
  8.5699996E-03    1.9307759E-17
  8.6049996E-03   -4.2566675E-16
  8.6399997E-03   -1.7930866E-16
  8.6749997E-03    4.7531746E-16
  8.7099997E-03    4.0531575E-16
  8.7449998E-03   -4.4786417E-16
  8.7799998E-03   -6.7911184E-16
  8.8149998E-03    3.1506576E-16
  8.8499999E-03    9.7785687E-16
  8.8849999E-03   -3.8912144E-17
  8.9199999E-03   -1.2450679E-15
  8.9550000E-03   -4.1044993E-16
  8.9900000E-03    1.4068760E-15
  9.0250000E-03    1.0288126E-15
  9.0600001E-03   -1.3760313E-15
  9.0950001E-03   -1.7886941E-15
  9.1300001E-03    1.0497779E-15
  9.1650002E-03    2.6093401E-15
  9.2000002E-03   -3.3257356E-16
  9.2350002E-03   -3.3509875E-15
  9.2700003E-03   -8.4307540E-16
  9.3050003E-03    3.8268229E-15
  9.3400003E-03    2.4988732E-15
  9.3750004E-03   -3.7611863E-15
  9.4100004E-03   -4.5241042E-15
  9.4450004E-03    2.8917586E-15
  9.4799995E-03    6.6977915E-15
  9.5149996E-03   -9.6159182E-16
  9.5499996E-03   -8.6233163E-15
  9.5849996E-03   -2.1819592E-15
  9.6199997E-03    9.7564567E-15
  9.6549997E-03    6.5043355E-15
  9.6899997E-03   -9.4510988E-15
  9.7249998E-03   -1.1710677E-14
  9.7599998E-03    6.9998413E-15
  9.7949998E-03    1.7128094E-14
  9.8299999E-03   -1.8118058E-15
  9.8649999E-03   -2.1672676E-14
  9.8999999E-03   -6.3570881E-15
  9.9350000E-03    2.3942440E-14
  9.9700000E-03    1.7256897E-14
  1.0005000E-02   -2.2291187E-14
  1.0040000E-02   -2.9866073E-14
  1.0075000E-02    1.5138525E-14
  1.0110000E-02    4.2253873E-14
  1.0145000E-02   -1.3664605E-15
  1.0180000E-02   -5.1575009E-14
  1.0215000E-02   -1.9134368E-14
  1.0250000E-02    5.4336689E-14
  1.0285000E-02    4.4970589E-14
  1.0320000E-02   -4.6940611E-14
  1.0355000E-02   -7.2928473E-14
  1.0390000E-02    2.6387062E-14
  1.0425000E-02    9.7769855E-14
  1.0460000E-02    8.6016357E-15
  1.0495000E-02   -1.1262165E-13
  1.0530000E-02   -5.6532642E-14
  1.0565000E-02    1.0991282E-13
  1.0600000E-02    1.1222699E-13
  1.0635000E-02   -8.2943824E-14
  1.0670000E-02   -1.6656578E-13
  1.0705000E-02    2.7802113E-14
  1.0740000E-02    2.0691624E-13
  1.0775000E-02    5.4427630E-14
  1.0810000E-02   -2.1893612E-13
  1.0845000E-02   -1.5603136E-13
  1.0880000E-02    1.8917170E-13
  1.0915000E-02    2.6178698E-13
  1.0950000E-02   -1.0892338E-13
  1.0985000E-02   -3.5011244E-13
  1.1020000E-02   -2.2210954E-14
  1.1055000E-02    3.9565592E-13
  1.1090000E-02    1.9296071E-13
  1.1125000E-02   -3.7442618E-13
  1.1160000E-02   -3.7938673E-13
  1.1195000E-02    2.6982800E-13
  1.1230000E-02    5.4637376E-13
  1.1265000E-02   -7.9166220E-14
  1.1300000E-02   -6.5278420E-13
  1.1335000E-02   -1.8168537E-13
  1.1370000E-02    6.5923655E-13
  1.1405000E-02    4.7647449E-13
  1.1440000E-02   -5.3828079E-13
  1.1475000E-02   -7.5188776E-13
  1.1510000E-02    2.8387590E-13
  1.1545000E-02    9.4555689E-13
  1.1580000E-02    8.1538021E-14
  1.1615000E-02   -9.9895038E-13
  1.1650000E-02   -5.0586439E-13
  1.1685000E-02    8.7217126E-13
  1.1720000E-02    9.1340531E-13
  1.1755000E-02   -5.5732843E-13
  1.1790000E-02   -1.2183644E-12
  1.1825000E-02    8.6338197E-14
  1.1860000E-02    1.3435331E-12
  1.1895000E-02    4.7002490E-13
  1.1930000E-02   -1.2402220E-12
  1.1965000E-02   -1.0133607E-12
  1.2000000E-02    9.0406811E-13
  1.2035000E-02    1.4379803E-12
  1.2070000E-02   -3.8179087E-13
  1.2105000E-02   -1.6568349E-12
  1.2140000E-02   -2.3569081E-13
  1.2175000E-02    1.6253586E-12
  1.2210000E-02    8.3359112E-13
  1.2245000E-02   -1.3560079E-12
  1.2280000E-02   -1.3030112E-12
  1.2315000E-02    9.1670627E-13
  1.2350000E-02    1.5713153E-12
  1.2385000E-02   -4.1263453E-13
  1.2420000E-02   -1.6245060E-12
  1.2455000E-02   -4.6606121E-14
  1.2490000E-02    1.5115566E-12
  1.2525000E-02    3.8435685E-13
  1.2560000E-02   -1.3270692E-12
  1.2595000E-02   -5.8706019E-13
  1.2630000E-02    1.1740243E-12
  1.2665000E-02    7.1408650E-13
  1.2700000E-02   -1.1166656E-12
  1.2735000E-02   -8.7908045E-13
  1.2770000E-02    1.1406187E-12
  1.2805000E-02    1.2046396E-12
  1.2840000E-02   -1.1359418E-12
  1.2875000E-02   -1.7606200E-12
  1.2910000E-02    9.1663320E-13
  1.2945000E-02    2.5060802E-12
  1.2980000E-02   -2.7939052E-13
  1.3015000E-02   -3.2604993E-12
  1.3050000E-02   -9.1333375E-13
  1.3085000E-02    3.7208604E-12
  1.3120000E-02    2.6492771E-12
  1.3155000E-02   -3.5303720E-12
  1.3190000E-02   -4.7120333E-12
  1.3225000E-02    2.3862917E-12
  1.3260000E-02    6.6801282E-12
  1.3295000E-02   -1.6414436E-13
  1.3330000E-02   -7.9974404E-12
  1.3365000E-02   -2.9829054E-12
  1.3400000E-02    8.1089978E-12
  1.3435000E-02    6.5894339E-12
  1.3470000E-02   -6.6332313E-12
  1.3505000E-02   -9.9395327E-12
  1.3540000E-02    3.5135516E-12
  1.3575000E-02    1.2216777E-11
  1.3610000E-02    9.0004648E-13
  1.3645000E-02   -1.2709286E-11
  1.3680000E-02   -5.8722862E-12
  1.3715000E-02    1.1019798E-11
  1.3750000E-02    1.0417923E-11
  1.3785000E-02   -7.2205597E-12
  1.3820000E-02   -1.3532515E-11
  1.3855000E-02    1.8958871E-12
  1.3890000E-02    1.4469610E-11
  1.3925000E-02    3.9749111E-12
  1.3960000E-02   -1.2963052E-11
  1.3995000E-02   -9.2652466E-12
  1.4030000E-02    9.3181790E-12
  1.4065000E-02    1.3009916E-11
  1.4100000E-02   -4.3258426E-12
  1.4135000E-02   -1.4664334E-11
  1.4170000E-02   -9.5906302E-13
  1.4205000E-02    1.4258410E-11
  1.4240000E-02    5.5448545E-12
  1.4275000E-02   -1.2358828E-11
  1.4310000E-02   -8.8190791E-12
  1.4345000E-02    9.8434828E-12
  1.4380000E-02    1.0746595E-11
  1.4415000E-02   -7.5231288E-12
  1.4450000E-02   -1.1812094E-11
  1.4485000E-02    5.8140524E-12
  1.4520000E-02    1.2771807E-11
  1.4555000E-02   -4.5359354E-12
  1.4590000E-02   -1.4249033E-11
  1.4625000E-02    2.9813005E-12
  1.4660000E-02    1.6368401E-11
  1.4695000E-02   -1.8805079E-13
  1.4730000E-02   -1.8483224E-11
  1.4765000E-02   -4.5006802E-12
  1.4800000E-02    1.9341362E-11
  1.4835000E-02    1.1011665E-11
  1.4870000E-02   -1.7468239E-11
  1.4905000E-02   -1.8282676E-11
  1.4940000E-02    1.1822705E-11
  1.4975000E-02    2.4471810E-11
  1.5010000E-02   -2.2630225E-12
  1.5045000E-02   -2.7325548E-11
  1.5080000E-02   -9.9854092E-12
  1.5115000E-02    2.5104689E-11
  1.5150000E-02    2.2637130E-11
  1.5185000E-02   -1.7084705E-11
  1.5220000E-02   -3.2647898E-11
  1.5255000E-02    4.3681309E-12
  1.5290000E-02    3.7571047E-11
  1.5325000E-02    1.0681272E-11
  1.5360000E-02   -3.5971490E-11
  1.5395000E-02   -2.4664465E-11
  1.5430000E-02    2.8513599E-11
  1.5465000E-02    3.4745162E-11
  1.5500000E-02   -1.7103536E-11
  1.5535000E-02   -3.8763295E-11
  1.5570000E-02    5.2703020E-12
  1.5605000E-02    3.7048298E-11
  1.5640000E-02    4.3798511E-12
  1.5675001E-02   -3.0727362E-11
  1.5710000E-02   -9.0133326E-12
  1.5745001E-02    2.3341645E-11
  1.5780000E-02    9.1198342E-12
  1.5814999E-02   -1.7236860E-11
  1.5850000E-02   -5.6361044E-12
  1.5884999E-02    1.5225729E-11
  1.5920000E-02    2.3214403E-12
  1.5954999E-02   -1.6013718E-11
  1.5990000E-02   -2.3339056E-13
  1.6024999E-02    1.9757140E-11
  1.6060000E-02    3.1630677E-12
  1.6094999E-02   -2.1730161E-11
  1.6130000E-02   -9.5305534E-12
  1.6164999E-02    2.0451691E-11
  1.6200000E-02    1.9299656E-11
  1.6235000E-02   -1.1063644E-11
  1.6270000E-02   -2.5520220E-11
  1.6305000E-02   -2.5512038E-12
  1.6340001E-02    2.8174933E-11
  1.6375000E-02    2.2069917E-11
  1.6410001E-02   -2.0776721E-11
  1.6445000E-02   -3.9185724E-11
  1.6480001E-02    6.9756831E-12
  1.6515000E-02    5.5375839E-11
  1.6550001E-02    1.9177271E-11
  1.6585000E-02   -5.6873471E-11
  1.6620001E-02   -4.2999368E-11
  1.6655000E-02    5.2120589E-11
  1.6690001E-02    6.8083199E-11
  1.6725000E-02   -3.3319878E-11
  1.6759999E-02   -8.1409157E-11
  1.6795000E-02    1.2521807E-11
  1.6829999E-02    8.9970253E-11
  1.6865000E-02    1.9176764E-11
  1.6899999E-02   -7.7130927E-11
  1.6935000E-02   -3.5828399E-11
  1.6969999E-02    6.5599762E-11
  1.7005000E-02    5.2282987E-11
  1.7039999E-02   -4.1348206E-11
  1.7075000E-02   -4.8887047E-11
  1.7109999E-02    3.1170906E-11
  1.7145000E-02    5.3660434E-11
  1.7180000E-02   -9.1821464E-12
  1.7215000E-02   -4.0020400E-11
  1.7250000E-02    5.7839801E-12
  1.7285001E-02    4.0113791E-11
  1.7320000E-02    8.1454114E-12
  1.7355001E-02   -2.7317995E-11
  1.7390000E-02   -8.9468398E-12
  1.7425001E-02    3.3827514E-11
  1.7460000E-02    3.4962120E-11
  1.7495001E-02   -1.2688813E-11
  1.7530000E-02   -3.7162735E-11
  1.7565001E-02    7.4709457E-12
  1.7600000E-02    5.9176490E-11
  1.7635001E-02    3.0003333E-11
  1.7670000E-02   -4.6367327E-11
  1.7704999E-02   -4.3839175E-11
  1.7740000E-02    4.7506457E-11
  1.7774999E-02    8.4898692E-11
  1.7810000E-02   -7.5427295E-12
  1.7844999E-02   -8.6781311E-11
  1.7880000E-02   -7.5061181E-12
  1.7914999E-02    1.1092487E-10
  1.7950000E-02    6.5963603E-11
  1.7984999E-02   -7.7288384E-11
  1.8020000E-02   -8.0130916E-11
  1.8054999E-02    5.8877965E-11
  1.8090000E-02    1.0519832E-10
  1.8124999E-02   -9.3540297E-12
  1.8160000E-02   -9.5193305E-11
  1.8195000E-02   -1.8215589E-11
  1.8230001E-02    1.0118293E-10
  1.8265000E-02    8.1255870E-11
  1.8300001E-02   -4.1611794E-11
  1.8335000E-02   -8.4586019E-11
  1.8370001E-02    1.6971332E-11
  1.8405000E-02    1.0955872E-10
  1.8440001E-02    3.7025265E-11
  1.8475000E-02   -9.6637733E-11
  1.8510001E-02   -6.3138952E-11
  1.8545000E-02    8.1015583E-11
  1.8580001E-02    9.0678388E-11
  1.8615000E-02   -4.3774314E-11
  1.8650001E-02   -8.7588568E-11
  1.8685000E-02    2.5965811E-11
  1.8719999E-02    9.1594364E-11
  1.8755000E-02    8.7474776E-12
  1.8789999E-02   -5.2309306E-11
  1.8825000E-02   -2.5075339E-12
  1.8859999E-02    3.1758488E-11
  1.8895000E-02   -1.4282598E-11
  1.8929999E-02   -4.1673821E-11
  1.8965000E-02    1.3980758E-11
  1.8999999E-02    3.0938720E-11
  1.9035000E-02   -3.7811729E-11
  1.9069999E-02   -4.2856243E-11
  1.9105000E-02    3.5331547E-11
  1.9140000E-02    3.7618075E-11
  1.9175000E-02   -3.1722652E-11
  1.9210000E-02   -4.2542581E-11
  1.9245001E-02   -1.3884698E-11
  1.9280000E-02   -2.8038833E-11
  1.9315001E-02   -1.3316943E-12
  1.9350000E-02    4.9473339E-11
  1.9385001E-02   -2.2448850E-11
  1.9420000E-02   -9.8113552E-11
  1.9455001E-02   -4.5971668E-13
  1.9490000E-02    7.5318848E-11
  1.9525001E-02   -2.7979154E-11
  1.9560000E-02   -1.0372515E-10
  1.9595001E-02   -3.8847869E-11
  1.9630000E-02    4.4773667E-11
  1.9664999E-02    6.3919182E-11
  1.9700000E-02   -2.7706263E-11
  1.9734999E-02   -1.3802344E-10
  1.9770000E-02   -1.8318583E-11
  1.9804999E-02    1.0344924E-10
  1.9840000E-02   -1.0245309E-10
  1.9874999E-02   -2.3791352E-10
  1.9910000E-02    6.1003903E-11
  1.9944999E-02    2.4910737E-10
  1.9980000E-02   -5.2483656E-11
  2.0014999E-02   -2.7047295E-10
  2.0050000E-02   -5.1205925E-11
  2.0085000E-02    1.6550861E-10
  2.0120000E-02    4.4921115E-11
  2.0155000E-02   -1.2235239E-10
  2.0190001E-02   -6.0141198E-11
  2.0225000E-02    4.7022674E-11
  2.0260001E-02    2.5788448E-11
  2.0295000E-02   -8.2600263E-12
  2.0330001E-02   -1.1737286E-11
  2.0365000E-02   -8.8527519E-11
  2.0400001E-02   -1.3813994E-10
  2.0435000E-02    1.4535129E-11
  2.0470001E-02    1.9335998E-10
  2.0505000E-02    7.9349048E-11
  2.0540001E-02   -1.9734279E-10
  2.0575000E-02   -1.8937477E-10
  2.0609999E-02    1.0911601E-10
  2.0645000E-02    2.2102774E-10
  2.0679999E-02   -1.1296205E-11
  2.0715000E-02   -1.7621445E-10
  2.0749999E-02   -1.1267674E-11
  2.0785000E-02    1.7359519E-10
  2.0819999E-02    6.4723449E-11
  2.0855000E-02   -1.0337609E-10
  2.0889999E-02   -4.8336554E-11
  2.0925000E-02    2.4887049E-11
  2.0959999E-02   -7.2977830E-12
  2.0995000E-02    9.1750843E-11
  2.1029999E-02    2.0739599E-10
  2.1065000E-02    2.9262464E-11
  2.1100000E-02   -1.2747116E-10
  2.1135001E-02    7.2353408E-11
  2.1170000E-02    2.0896752E-10
  2.1205001E-02   -9.9103651E-12
  2.1240000E-02   -1.1119052E-10
  2.1275001E-02    1.4522761E-10
  2.1310000E-02    2.3876229E-10
  2.1345001E-02   -9.3310491E-11
  2.1380000E-02   -2.7770691E-10
  2.1415001E-02    7.6230827E-11
  2.1450000E-02    3.8535192E-10
  2.1485001E-02    7.7067464E-11
  2.1520000E-02   -3.4031430E-10
  2.1555001E-02   -1.2010055E-10
  2.1590000E-02    4.0055281E-10
  2.1624999E-02    3.8980019E-10
  2.1660000E-02   -5.4259111E-11
  2.1694999E-02   -2.1910032E-10
  2.1730000E-02   -3.4836176E-11
  2.1764999E-02    1.2156749E-10
  2.1800000E-02    1.6342590E-10
  2.1834999E-02    2.6961176E-11
  2.1870000E-02   -2.5901839E-10
  2.1904999E-02   -1.9650576E-10
  2.1940000E-02    2.7053687E-10
  2.1974999E-02    3.7459960E-10
  2.2010000E-02   -6.8871187E-11
  2.2045000E-02   -3.4820774E-10
  2.2080000E-02   -1.3531340E-10
  2.2115000E-02    1.8607153E-10
  2.2150001E-02    1.5914980E-10
  2.2185000E-02   -1.7395650E-10
  2.2220001E-02   -2.3112498E-10
  2.2255000E-02    9.5679624E-11
  2.2290001E-02    1.3571250E-10
  2.2325000E-02   -1.6473158E-10
  2.2360001E-02   -1.9066539E-10
  2.2395000E-02   -3.1560157E-11
  2.2430001E-02   -5.8747902E-11
  2.2465000E-02   -8.0369746E-11
  2.2500001E-02   -5.0413847E-11
  2.2535000E-02   -1.3342998E-10
  2.2569999E-02   -1.3696221E-10
  2.2605000E-02   -2.0999598E-11
  2.2639999E-02   -4.8669291E-11
  2.2675000E-02   -1.8187969E-10
  2.2709999E-02   -2.3474686E-10
  2.2745000E-02   -1.4988792E-10
  2.2779999E-02    2.2106596E-11
  2.2815000E-02   -3.1297763E-11
  2.2849999E-02   -3.4416553E-10
  2.2885000E-02   -3.2974362E-10
  2.2919999E-02    4.4592757E-11
  2.2955000E-02    8.3350771E-11
  2.2990000E-02   -1.8851454E-10
  2.3025000E-02   -2.2370691E-10
  2.3060000E-02   -9.5547618E-11
  2.3095001E-02   -6.5112214E-11
  2.3130000E-02   -1.3495473E-10
  2.3165001E-02   -2.9519040E-10
  2.3200000E-02   -3.0940506E-10
  2.3235001E-02   -5.5698328E-11
  2.3270000E-02    3.8416416E-11
  2.3305001E-02   -9.3776487E-11
  2.3340000E-02   -6.6215415E-11
  2.3375001E-02   -4.4805673E-11
  2.3410000E-02   -1.9538128E-10
  2.3445001E-02   -1.7015898E-10
  2.3480000E-02   -4.1764765E-11
  2.3514999E-02   -9.6644449E-11
  2.3550000E-02   -1.8577000E-10
  2.3584999E-02   -2.1363983E-10
  2.3620000E-02   -1.4013817E-11
  2.3654999E-02    4.3450060E-10
  2.3690000E-02    2.7121766E-10
  2.3724999E-02   -5.0232823E-10
  2.3760000E-02   -3.9429793E-10
  2.3794999E-02    4.1275319E-10
  2.3830000E-02    3.5505679E-10
  2.3864999E-02   -1.6758556E-10
  2.3900000E-02   -1.6139187E-10
  2.3934999E-02   -3.5826921E-11
  2.3970000E-02    3.7201506E-11
  2.4005000E-02    1.2202102E-10
  2.4040001E-02   -7.2879806E-11
  2.4075000E-02   -4.9494304E-11
  2.4110001E-02    2.4873706E-10
  2.4145000E-02    6.3485541E-12
  2.4180001E-02    5.2479717E-13
  2.4215000E-02    7.5295986E-10
  2.4250001E-02    5.2941529E-10
  2.4285000E-02   -4.8729870E-10
  2.4320001E-02   -2.2584751E-10
  2.4355000E-02    4.5472665E-10
  2.4390001E-02    8.1535056E-11
  2.4425000E-02   -1.9073459E-10
  2.4460001E-02    1.4342622E-10
  2.4495000E-02    2.5454233E-10
  2.4529999E-02    1.9792047E-10
  2.4565000E-02    9.9013311E-11
  2.4599999E-02    1.5305653E-10
  2.4635000E-02    6.1919098E-10
  2.4669999E-02    3.0473624E-10
  2.4705000E-02   -6.9702616E-10
  2.4739999E-02   -9.5513077E-11
  2.4775000E-02    1.1382115E-09
  2.4809999E-02    3.3522946E-10
  2.4845000E-02   -7.1875078E-10
  2.4879999E-02   -7.0921708E-13
  2.4915000E-02    5.2553734E-10
  2.4950000E-02    8.2646029E-11
  2.4985000E-02    5.6801217E-11
  2.5020000E-02    2.0225228E-10
  2.5055001E-02    4.5385484E-11
  2.5090000E-02    1.3140336E-11
  2.5125001E-02   -2.3945977E-11
  2.5160000E-02    1.3348812E-10
  2.5195001E-02    4.7226412E-10
  2.5230000E-02   -5.6911156E-11
  2.5265001E-02   -6.3376215E-10
  2.5300000E-02    1.8111072E-10
  2.5335001E-02    5.9283400E-10
  2.5370000E-02   -4.3798901E-10
  2.5405001E-02   -4.3248741E-10
  2.5440000E-02    7.7685175E-10
  2.5474999E-02    5.6179422E-10
  2.5510000E-02   -5.4213017E-10
  2.5544999E-02   -2.9696112E-10
  2.5580000E-02    6.1209154E-10
  2.5614999E-02    5.5551214E-10
  2.5650000E-02   -3.1546354E-10
  2.5684999E-02   -9.6347097E-10
  2.5720000E-02   -5.0326315E-10
  2.5754999E-02    6.1578875E-10
  2.5790000E-02    5.4266752E-10
  2.5824999E-02   -6.6646266E-10
  2.5860000E-02   -6.2352135E-10
  2.5895000E-02    6.7200556E-10
  2.5930000E-02    8.1853546E-10
  2.5965000E-02   -1.1849538E-10
  2.6000001E-02   -4.3879983E-10
  2.6035000E-02   -1.8744412E-10
  2.6070001E-02    2.5201358E-10
  2.6105000E-02    6.1623906E-10
  2.6140001E-02   -1.1340895E-10
  2.6175000E-02   -9.4171271E-10
  2.6210001E-02   -1.1360191E-11
  2.6245000E-02    8.5255469E-10
  2.6280001E-02   -1.9323640E-11
  2.6315000E-02   -5.5662652E-10
  2.6350001E-02   -2.1887120E-10
  2.6385000E-02   -2.2319992E-10
  2.6419999E-02    2.0316729E-10
  2.6455000E-02    5.8123456E-10
  2.6489999E-02   -2.5201075E-10
  2.6525000E-02   -1.8125546E-10
  2.6559999E-02    9.6862185E-10
  2.6595000E-02    5.9122601E-10
  2.6629999E-02   -3.0938776E-11
  2.6665000E-02    2.1927539E-10
  2.6699999E-02   -5.7238037E-10
  2.6735000E-02   -5.7120547E-10
  2.6769999E-02    1.2058654E-09
  2.6805000E-02    4.5891008E-10
  2.6839999E-02   -1.4849468E-09
  2.6875000E-02   -7.0374720E-11
  2.6910000E-02    1.1493929E-09
  2.6945001E-02   -1.2550411E-10
  2.6980000E-02    5.9941475E-11