 -4.8000002E-03    1.0000000E-24
 -4.7650002E-03    1.0000002E-24
 -4.7300002E-03    1.0000001E-24
 -4.6950001E-03    1.0000000E-24
 -4.6600001E-03    1.0000003E-24
 -4.6250001E-03    1.0000002E-24
 -4.5900000E-03    9.9999992E-25
 -4.5550000E-03    1.0000002E-24
 -4.5200000E-03    1.0000000E-24
 -4.4849999E-03    9.9999992E-25
 -4.4499999E-03    1.0000002E-24
 -4.4149999E-03    1.0000003E-24
 -4.3799998E-03    9.9999953E-25
 -4.3449998E-03    9.9999972E-25
 -4.3100002E-03    1.0000007E-24
 -4.2750002E-03    1.0000002E-24
 -4.2400002E-03    9.9999982E-25
 -4.2050001E-03    1.0000006E-24
 -4.1700001E-03    1.0000006E-24
 -4.1350001E-03    9.9999943E-25
 -4.1000000E-03    9.9999943E-25
 -4.0650000E-03    1.0000004E-24
 -4.0300000E-03    1.0000001E-24
 -3.9949999E-03    9.9999963E-25
 -3.9599999E-03    1.0000005E-24
 -3.9249999E-03    1.0000007E-24
 -3.8900001E-03    9.9999953E-25
 -3.8550000E-03    9.9999963E-25
 -3.8200000E-03    1.0000005E-24
 -3.7849999E-03    1.0000002E-24
 -3.7499999E-03    9.9999972E-25
 -3.7150001E-03    1.0000005E-24
 -3.6800001E-03    1.0000007E-24
 -3.6450000E-03    9.9999972E-25
 -3.6100000E-03    9.9999953E-25
 -3.5750000E-03    9.9999992E-25
 -3.5399999E-03    9.9999992E-25
 -3.5049999E-03    1.0000000E-24
 -3.4700001E-03    1.0000006E-24
 -3.4350001E-03    1.0000005E-24
 -3.4000000E-03    1.0000002E-24
 -3.3650000E-03    9.9999992E-25
 -3.3300000E-03    9.9999992E-25
 -3.2949999E-03    9.9999972E-25
 -3.2599999E-03    9.9999992E-25
 -3.2250001E-03    1.0000004E-24
 -3.1900001E-03    1.0000002E-24
 -3.1550000E-03    1.0000000E-24
 -3.1200000E-03    1.0000002E-24
 -3.0850000E-03    1.0000004E-24
 -3.0499999E-03    9.9999982E-25
 -3.0149999E-03    9.9999992E-25
 -2.9800001E-03    1.0000005E-24
 -2.9450001E-03    1.0000002E-24
 -2.9100000E-03    9.9999992E-25
 -2.8750000E-03    1.0000001E-24
 -2.8400000E-03    1.0000002E-24
 -2.8049999E-03    1.0000000E-24
 -2.7699999E-03    1.0000002E-24
 -2.7350001E-03    1.0000005E-24
 -2.7000001E-03    1.0000002E-24
 -2.6650000E-03    9.9999972E-25
 -2.6300000E-03    9.9999992E-25
 -2.5950000E-03    1.0000002E-24
 -2.5599999E-03    1.0000003E-24
 -2.5249999E-03    9.9999982E-25
 -2.4900001E-03    9.9999982E-25
 -2.4550001E-03    1.0000003E-24
 -2.4200000E-03    1.0000008E-24
 -2.3850000E-03    1.0000005E-24
 -2.3500000E-03    1.0000000E-24
 -2.3149999E-03    9.9999963E-25
 -2.2799999E-03    9.9999893E-25
 -2.2450001E-03    9.9999903E-25
 -2.2100001E-03    1.0000005E-24
 -2.1750000E-03    1.0000013E-24
 -2.1400000E-03    1.0000002E-24
 -2.1050000E-03    1.0000000E-24
 -2.0699999E-03    1.0000009E-24
 -2.0349999E-03    1.0000004E-24
 -2.0000001E-03    9.9999913E-25
 -1.9650001E-03    9.9999992E-25
 -1.9300000E-03    1.0000009E-24
 -1.8950000E-03    1.0000004E-24
 -1.8600000E-03    9.9999943E-25
 -1.8250000E-03    9.9999963E-25
 -1.7900000E-03    1.0000005E-24
 -1.7550000E-03    1.0000005E-24
 -1.7199999E-03    9.9999992E-25
 -1.6850000E-03    1.0000005E-24
 -1.6500000E-03    1.0000010E-24
 -1.6150000E-03    9.9999933E-25
 -1.5800000E-03    9.9999824E-25
 -1.5450000E-03    9.9999953E-25
 -1.5100000E-03    1.0000012E-24
 -1.4750001E-03    1.0000006E-24
 -1.4400000E-03    9.9999963E-25
 -1.4050000E-03    1.0000002E-24
 -1.3700000E-03    1.0000005E-24
 -1.3350000E-03    1.0000001E-24
 -1.3000000E-03    9.9999972E-25
 -1.2650000E-03    1.0000001E-24
 -1.2300001E-03    1.0000005E-24
 -1.1950000E-03    1.0000002E-24
 -1.1600000E-03    9.9999903E-25
 -1.1250000E-03    9.9999963E-25
 -1.0900000E-03    1.0000009E-24
 -1.0550000E-03    1.0000005E-24
 -1.0200000E-03    9.9999992E-25
 -9.8500005E-04    1.0000002E-24
 -9.5000002E-04    9.9999992E-25
 -9.1499998E-04    9.9999972E-25
 -8.8000001E-04    1.0000002E-24
 -8.4499997E-04    9.9999982E-25
 -8.1000000E-04    9.9999982E-25
 -7.7500002E-04    1.0000009E-24
 -7.3999999E-04    1.0000005E-24
 -7.0500001E-04    9.9999893E-25
 -6.6999998E-04    9.9999943E-25
 -6.3500000E-04    1.0000007E-24
 -6.0000003E-04    1.0000006E-24
 -5.6499999E-04    9.9999982E-25
 -5.3000002E-04    1.0000001E-24
 -4.9499999E-04    1.0000007E-24
 -4.6000001E-04    1.0000005E-24
 -4.2500001E-04    9.9999963E-25
 -3.9000000E-04    9.9999963E-25
 -3.5500000E-04    1.0000006E-24
 -3.1999999E-04    1.0000005E-24
 -2.8499999E-04    9.9999923E-25
 -2.5000001E-04    9.9999972E-25
 -2.1499999E-04    1.0000008E-24
 -1.8000000E-04    1.0000001E-24
 -1.4500000E-04    9.9999854E-25
 -1.1000000E-04    9.9999943E-25
 -7.5000004E-05    1.0000013E-24
 -3.9999999E-05    1.0000015E-24
 -4.9999999E-06    1.0000003E-24
  2.9999999E-05    9.9999992E-25
  6.5000000E-05    1.0000003E-24
  9.9999997E-05    1.0000000E-24
  1.3499999E-04    9.9999884E-25
  1.7000000E-04    9.9999864E-25
  2.0500000E-04    1.0000000E-24
  2.3999999E-04    1.0000009E-24
  2.7500000E-04    1.0000002E-24
  3.1000000E-04    1.0000004E-24
  3.4500001E-04    1.0000015E-24
  3.8000001E-04    1.0000003E-24
  4.1499999E-04    9.9999834E-25
  4.4999999E-04    9.9999903E-25
  4.8500000E-04    1.0000006E-24
  5.2000000E-04    1.0000003E-24
  5.5499998E-04    1.0000001E-24
  5.9000001E-04    1.0000011E-24
  6.2499999E-04    1.0000008E-24
  6.6000002E-04    9.9999913E-25
  6.9500000E-04    9.9999874E-25
  7.3000003E-04    9.9999933E-25
  7.6500000E-04    1.0000006E-24
  7.9999998E-04    1.0000006E-24
  8.3500001E-04    9.9999963E-25
  8.6999999E-04    1.0000004E-24
  9.0500002E-04    1.0000011E-24
  9.4000000E-04    9.9999953E-25
  9.7499997E-04    9.9999953E-25
  1.0100000E-03    1.0000018E-24
  1.0450000E-03    1.0000010E-24
  1.0800000E-03    9.9999884E-25
  1.1150000E-03    1.0000003E-24
  1.1500000E-03    1.0000019E-24
  1.1849999E-03    9.9999854E-25
  1.2200000E-03    9.9999834E-25
  1.2550000E-03    1.0000038E-24
  1.2900000E-03    9.9999992E-25
  1.3250000E-03    9.9999164E-25
  1.3600000E-03    1.0000036E-24
  1.3950000E-03    1.0000129E-24
  1.4299999E-03    9.9998612E-25
  1.4650000E-03    9.9998621E-25
  1.5000000E-03    1.0000351E-24
  1.5350000E-03    1.0000029E-24
  1.5700000E-03    9.9993159E-25
  1.6050000E-03    1.0000379E-24
  1.6400000E-03    1.0001056E-24
  1.6749999E-03    9.9986542E-25
  1.7100000E-03    9.9988425E-25
  1.7450000E-03    1.0003217E-24
  1.7800000E-03    1.0000351E-24
  1.8150000E-03    9.9937958E-25
  1.8500000E-03    1.0002564E-24
  1.8850000E-03    1.0010123E-24
  1.9200000E-03    9.9905201E-25
  1.9550000E-03    9.9861586E-25
  1.9900000E-03    1.0022967E-24
  2.0250001E-03    1.0014603E-24
  2.0600001E-03    9.9542256E-25
  2.0949999E-03    9.9930109E-25
  2.1299999E-03    1.0080001E-24
  2.1650000E-03    9.9820901E-25
  2.2000000E-03    9.8746147E-25
  2.2350000E-03    1.0073032E-24
  2.2700001E-03    1.0176694E-24
  2.3050001E-03    9.8249263E-25
  2.3399999E-03    9.7799435E-25
  2.3749999E-03    1.0342909E-24
  2.4100000E-03    1.0228613E-24
  2.4450000E-03    9.4066920E-25
  2.4800000E-03    9.8425041E-25
  2.5150001E-03    1.0932975E-24
  2.5500001E-03    9.9390814E-25
  2.5849999E-03    8.6549164E-25
  2.6199999E-03    1.0519630E-24
  2.6550000E-03    1.1767965E-24
  2.6900000E-03    8.6655187E-25
  2.7250000E-03    7.9368504E-25
  2.7600001E-03    1.2631686E-24
  2.7950001E-03    1.1969938E-24
  2.8299999E-03    5.4819064E-25
  2.8649999E-03    8.9565285E-25
  2.9000000E-03    1.7024169E-24
  2.9350000E-03    8.5734547E-25
  2.9700000E-03   -6.6845027E-28
  3.0050001E-03    1.6519799E-24
  3.0400001E-03    2.2996274E-24
  3.0749999E-03   -5.8151606E-25
  3.1099999E-03   -4.9738415E-25
  3.1450000E-03    4.1551067E-24
  3.1800000E-03    2.4063855E-24
  3.2150000E-03   -4.6824007E-24
  3.2500001E-03    2.8555596E-25
  3.2850001E-03    1.0583630E-23
  3.3199999E-03   -5.9894314E-26
  3.3549999E-03   -1.4421064E-23
  3.3900000E-03    5.6099437E-24
  3.4250000E-03    2.4939219E-23
  3.4600000E-03   -9.8652089E-24
  3.4950001E-03   -3.5114805E-23
  3.5300001E-03    2.1967828E-23
  3.5649999E-03    5.4213008E-23
  3.5999999E-03   -3.5151134E-23
  3.6350000E-03   -7.5833350E-23
  3.6700000E-03    5.8442741E-23
  3.7050000E-03    1.0990167E-22
  3.7400001E-03   -8.4078032E-23
  3.7750001E-03   -1.5051219E-22
  3.8099999E-03    1.1847080E-22
  3.8449999E-03    2.0743438E-22
  3.8800000E-03   -1.4856019E-22
  3.9149998E-03   -2.7295688E-22
  3.9499998E-03    1.7135974E-22
  3.9849998E-03    3.5153192E-22
  4.0199999E-03   -1.5862751E-22
  4.0549999E-03   -4.2340369E-22
  4.0899999E-03    8.4835679E-23
  4.1250000E-03    4.6907421E-22
  4.1600000E-03    1.0887923E-22
  4.1950000E-03   -4.2513575E-22
  4.2300001E-03   -4.8519994E-22
  4.2650001E-03    1.9791317E-22
  4.3000001E-03    1.1405651E-21
  4.3350002E-03    3.9435914E-22
  4.3700002E-03   -2.1615790E-21
  4.4049998E-03   -1.6227144E-21
  4.4399998E-03    3.6285469E-21
  4.4749998E-03    3.9171489E-21
  4.5099999E-03   -5.5280024E-21
  4.5449999E-03   -7.8685774E-21
  4.5799999E-03    7.6905768E-21
  4.6150000E-03    1.4274561E-20
  4.6500000E-03   -9.6150206E-21
  4.6850001E-03   -2.4072531E-20
  4.7200001E-03    1.0300652E-20
  4.7550001E-03    3.8244356E-20
  4.7900002E-03   -7.9690475E-21
  4.8250002E-03   -5.7504775E-20
  4.8600002E-03   -1.6245204E-22
  4.8949998E-03    8.1827905E-20
  4.9299998E-03    1.8103680E-20
  4.9649999E-03   -1.0961027E-19
  4.9999999E-03   -5.1043432E-20
  5.0349999E-03    1.3654710E-19
  5.0700000E-03    1.0493628E-19
  5.1050000E-03   -1.5410843E-19
  5.1400000E-03   -1.8529184E-19
  5.1750001E-03    1.4788414E-19
  5.2100001E-03    2.9491825E-19
  5.2450001E-03   -9.6018634E-20
  5.2800002E-03   -4.3010187E-19
  5.3150002E-03   -3.1496992E-20
  5.3500002E-03    5.7506759E-19
  5.3849998E-03    2.7179097E-19
  5.4199998E-03   -6.9458718E-19
  5.4549999E-03   -6.6480682E-19
  5.4899999E-03    7.2543600E-19
  5.5249999E-03    1.2441468E-18
  5.5600000E-03   -5.6802084E-19
  5.5950000E-03   -2.0211499E-18
  5.6300000E-03    8.1069167E-20
  5.6650001E-03    2.9609772E-18
  5.7000001E-03    9.1650071E-19
  5.7350001E-03   -3.9504951E-18
  5.7700002E-03   -2.6305229E-18
  5.8050002E-03    4.7602354E-18
  5.8400002E-03    5.2562998E-18
  5.8749998E-03   -5.0061405E-18
  5.9099998E-03   -8.9157770E-18
  5.9449999E-03    4.1221805E-18
  5.9799999E-03    1.3561687E-17
  6.0149999E-03   -1.3601788E-18
  6.0500000E-03   -1.8848151E-17
  6.0850000E-03   -4.1599992E-18
  6.1200000E-03    2.3976101E-17
  6.1550001E-03    1.3323323E-17
  6.1900001E-03   -2.7535291E-17
  6.2250001E-03   -2.6788175E-17
  6.2600002E-03    2.7383401E-17
  6.2950002E-03    4.4631311E-17
  6.3299998E-03   -2.0623576E-17
  6.3649998E-03   -6.5867505E-17
  6.3999998E-03    3.7604259E-18
  6.4349999E-03    8.7875499E-17
  6.4699999E-03    2.6869235E-17
  6.5049999E-03   -1.0580910E-16
  6.5400000E-03   -7.4300155E-17
  6.5750000E-03    1.1213410E-16
  6.6100000E-03    1.3971335E-16
  6.6450001E-03   -9.6500909E-17
  6.6800001E-03   -2.2078444E-16
  6.7150001E-03    4.6225519E-17
  6.7500002E-03    3.0971686E-16
  6.7850002E-03    5.2311511E-17
  6.8199998E-03   -3.9123703E-16
  6.8549998E-03   -2.1106251E-16
  6.8899998E-03    4.4101644E-16
  6.9249999E-03    4.3632891E-16
  6.9599999E-03   -4.2520067E-16
  6.9949999E-03   -7.2341082E-16
  7.0300000E-03    3.0191679E-16
  7.0650000E-03    1.0503463E-15
  7.1000000E-03   -2.5677084E-17
  7.1350001E-03   -1.3715891E-15
  7.1700001E-03   -4.4444867E-16
  7.2050001E-03    1.6131759E-15
  7.2400002E-03    1.1325018E-15
  7.2750002E-03   -1.6714249E-15
  7.3099998E-03   -2.0293516E-15
  7.3449998E-03    1.4178043E-15
  7.3799998E-03    3.0739821E-15
  7.4149999E-03   -7.1256424E-16
  7.4499999E-03   -4.1351573E-15
  7.4850000E-03   -5.7065192E-16
  7.5200000E-03    4.9981678E-15
  7.5550000E-03    2.5084142E-15
  7.5900001E-03   -5.3626973E-15
  7.6250001E-03   -5.0808242E-15
  7.6600001E-03    4.8590210E-15
  7.6950002E-03    8.1193554E-15
  7.7300002E-03   -3.0894953E-15
  7.7650002E-03   -1.1258548E-14
  7.7999998E-03   -3.0004220E-16
  7.8349998E-03    1.3904623E-14
  7.8699999E-03    5.5183595E-15
  7.9049999E-03   -1.5238218E-14
  7.9399999E-03   -1.2503513E-14
  7.9750000E-03    1.4268853E-14
  8.0100000E-03    2.0789372E-14
  8.0450000E-03   -9.9579785E-15
  8.0800001E-03   -2.9392142E-14
  8.1150001E-03    1.4171374E-15
  8.1500001E-03    3.6752438E-14
  8.1850002E-03    1.1824405E-14
  8.2200002E-03   -4.0775688E-14
  8.2550002E-03   -2.9508205E-14
  8.2900003E-03    3.9011217E-14
  8.3250003E-03    5.0341181E-14
  8.3600003E-03   -2.8999454E-14
  8.3950004E-03   -7.1769501E-14
  8.4300004E-03    8.7887342E-15
  8.4650004E-03    8.9923362E-14
  8.5000005E-03    2.2415780E-14
  8.5349996E-03   -9.9824601E-14
  8.5699996E-03   -6.3559218E-14
  8.6049996E-03    9.5929971E-14
  8.6399997E-03    1.1113274E-13
  8.6749997E-03   -7.3039278E-14
  8.7099997E-03   -1.5883596E-13
  8.7449998E-03    2.7530858E-14
  8.7799998E-03    1.9771016E-13
  8.8149998E-03    4.1226879E-14
  8.8499999E-03   -2.1690772E-13
  8.8849999E-03   -1.2954549E-13
  8.9199999E-03    2.0516341E-13
  8.9550000E-03    2.2847522E-13
  8.9900000E-03   -1.5292963E-13
  9.0250000E-03   -3.2360773E-13
  9.0600001E-03    5.4990321E-14
  9.0950001E-03    3.9600227E-13
  9.1300001E-03    8.6892462E-14
  9.1650002E-03   -4.2442853E-13
  9.2000002E-03   -2.6189931E-13
  9.2350002E-03    3.8888063E-13
  9.2700003E-03    4.4932686E-13
  9.3050003E-03   -2.7493220E-13
  9.3400003E-03   -6.1946607E-13
  9.3750004E-03    7.8388325E-14
  9.4100004E-03    7.3664870E-13
  9.4450004E-03    1.9066573E-13
  9.4799995E-03   -7.6459433E-13
  9.5149996E-03   -5.0564853E-13
  9.5499996E-03    6.7352168E-13
  9.5849996E-03    8.2430850E-13
  9.6199997E-03   -4.4761983E-13
  9.6549997E-03   -1.0928427E-12
  9.6899997E-03    9.1518163E-14
  9.7249998E-03    1.2531688E-12
  9.7599998E-03    3.6541340E-13
  9.7949998E-03   -1.2530457E-12
  9.8299999E-03   -8.6864749E-13
  9.8649999E-03    1.0579849E-12
  9.8999999E-03    1.3439611E-12
  9.9350000E-03   -6.6155870E-13
  9.9700000E-03   -1.7082559E-12
  1.0005000E-02    9.0990339E-14
  1.0040000E-02    1.8828708E-12
  1.0075000E-02    5.9214656E-13
  1.0110000E-02   -1.8078809E-12
  1.0145000E-02   -1.2962306E-12
  1.0180000E-02    1.4573536E-12
  1.0215000E-02    1.9122202E-12
  1.0250000E-02   -8.5036709E-13
  1.0285000E-02   -2.3343413E-12
  1.0320000E-02    5.0110008E-14
  1.0355000E-02    2.4793082E-12
  1.0390000E-02    8.4637001E-13
  1.0425000E-02   -2.2978813E-12
  1.0460000E-02   -1.7187946E-12
  1.0495000E-02    1.7856597E-12
  1.0530000E-02    2.4388011E-12
  1.0565000E-02   -9.9291441E-13
  1.0600000E-02   -2.8983055E-12
  1.0635000E-02    1.4853334E-14
  1.0670000E-02    3.0336207E-12
  1.0705000E-02    1.0383079E-12
  1.0740000E-02   -2.8207686E-12
  1.0775000E-02   -2.0566417E-12
  1.0810000E-02    2.2640091E-12
  1.0845000E-02    2.9260160E-12
  1.0880000E-02   -1.4088973E-12
  1.0915000E-02   -3.5478573E-12
  1.0950000E-02    3.4235269E-13
  1.0985000E-02    3.8753020E-12
  1.1020000E-02    8.5864670E-13
  1.1055000E-02   -3.8872022E-12
  1.1090000E-02   -2.1504077E-12
  1.1125000E-02    3.5241417E-12
  1.1160000E-02    3.4531260E-12
  1.1195000E-02   -2.7190585E-12
  1.1230000E-02   -4.6164279E-12
  1.1265000E-02    1.4815502E-12
  1.1300000E-02    5.5066013E-12
  1.1335000E-02    1.5134310E-13
  1.1370000E-02   -6.0138275E-12
  1.1405000E-02   -2.1941374E-12
  1.1440000E-02    5.8961273E-12
  1.1475000E-02    4.5432139E-12
  1.1510000E-02   -4.8175188E-12
  1.1545000E-02   -6.7826786E-12
  1.1580000E-02    2.6797178E-12
  1.1615000E-02    8.4060285E-12
  1.1650000E-02    3.2460593E-13
  1.1685000E-02   -9.0831006E-12
  1.1720000E-02   -4.0272937E-12
  1.1755000E-02    8.3891791E-12
  1.1790000E-02    8.1256408E-12
  1.1825000E-02   -5.6756986E-12
  1.1860000E-02   -1.1615930E-11
  1.1895000E-02    8.4809021E-13
  1.1930000E-02    1.3172636E-11
  1.1965000E-02    5.1732152E-12
  1.2000000E-02   -1.2203663E-11
  1.2035000E-02   -1.1372271E-11
  1.2070000E-02    8.5881146E-12
  1.2105000E-02    1.7043884E-11
  1.2140000E-02   -1.7737390E-12
  1.2175000E-02   -2.0529798E-11
  1.2210000E-02   -8.0424608E-12
  1.2245000E-02    1.9362444E-11
  1.2280000E-02    1.8323251E-11
  1.2315000E-02   -1.2945245E-11
  1.2350000E-02   -2.6107221E-11
  1.2385000E-02    2.8850557E-12
  1.2420000E-02    3.0406119E-11
  1.2455000E-02    1.0029216E-11
  1.2490000E-02   -2.9945133E-11
  1.2525000E-02   -2.5185201E-11
  1.2560000E-02    2.1492535E-11
  1.2595000E-02    3.7983481E-11
  1.2630000E-02   -4.9269243E-12
  1.2665000E-02   -4.2401103E-11
  1.2700000E-02   -1.4102241E-11
  1.2735000E-02    3.8027234E-11
  1.2770000E-02    3.1341724E-11
  1.2805000E-02   -2.7097576E-11
  1.2840000E-02   -4.6718594E-11
  1.2875000E-02    7.1917750E-12
  1.2910000E-02    5.5204962E-11
  1.2945000E-02    2.1645005E-11
  1.2980000E-02   -4.7202516E-11
  1.3015000E-02   -4.7752469E-11
  1.3050000E-02    2.4099804E-11
  1.3085000E-02    6.0724502E-11
  1.3120000E-02    2.8681280E-12
  1.3155000E-02   -6.3932817E-11
  1.3190000E-02   -3.2326149E-11
  1.3225000E-02    5.7729779E-11
  1.3260000E-02    6.7204499E-11
  1.3295000E-02   -2.9635714E-11
  1.3330000E-02   -9.1160988E-11
  1.3365000E-02   -1.7714495E-11
  1.3400000E-02    8.5081775E-11
  1.3435000E-02    5.8174961E-11
  1.3470000E-02   -6.0083487E-11
  1.3505000E-02   -8.2780775E-11
  1.3540000E-02    3.2538472E-11
  1.3575000E-02    1.0556764E-10
  1.3610000E-02    1.1500073E-11
  1.3645000E-02   -1.1346902E-10
  1.3680000E-02   -7.4805044E-11
  1.3715000E-02    7.5892931E-11
  1.3750000E-02    1.1428372E-10
  1.3785000E-02   -1.3236377E-11
  1.3820000E-02   -1.0888382E-10
  1.3855000E-02   -2.9400326E-11
  1.3890000E-02    9.5793783E-11
  1.3925000E-02    6.6404125E-11
  1.3960000E-02   -8.0300738E-11
  1.3995000E-02   -1.2228678E-10
  1.4030000E-02    1.5069956E-11
  1.4065000E-02    1.4248339E-10
  1.4100000E-02    7.8451412E-11
  1.4135000E-02   -8.6009137E-11
  1.4170000E-02   -1.1654007E-10
  1.4205000E-02    2.2435243E-11
  1.4240000E-02    1.1191773E-10
  1.4275000E-02    5.8698484E-12
  1.4310000E-02   -1.3439976E-10
  1.4345000E-02   -7.1627079E-11
  1.4380000E-02    1.3087313E-10
  1.4415000E-02    1.7401316E-10
  1.4450000E-02   -2.6230566E-11
  1.4485000E-02   -1.8734554E-10
  1.4520000E-02   -7.9452306E-11
  1.4555000E-02    1.1615334E-10
  1.4590000E-02    9.0584401E-11
  1.4625000E-02   -9.7599873E-11
  1.4660000E-02   -1.1600278E-10
  1.4695000E-02    9.4295544E-11
  1.4730000E-02    2.0636863E-10
  1.4765000E-02    2.6006156E-11
  1.4800000E-02   -1.9421481E-10
  1.4835000E-02   -1.4927097E-10
  1.4870000E-02    5.8749228E-11
  1.4905000E-02    1.1505629E-10
  1.4940000E-02   -1.3547126E-11
  1.4975000E-02   -7.2665270E-11
  1.5010000E-02    4.6637572E-11
  1.5045000E-02    1.4920408E-10
  1.5080000E-02    5.5425897E-11
  1.5115000E-02   -1.3181761E-10
  1.5150000E-02   -1.8306562E-10
  1.5185000E-02   -4.8630659E-11
  1.5220000E-02    9.9486752E-11
  1.5255000E-02    1.0238900E-10
  1.5290000E-02    9.5281309E-12
  1.5325000E-02   -9.4549151E-12
  1.5360000E-02    7.3694120E-11
  1.5395000E-02    8.3668114E-11
  1.5430000E-02   -8.0431745E-11
  1.5465000E-02   -2.2842873E-10
  1.5500000E-02   -1.2681449E-10
  1.5535000E-02    1.1783290E-10
  1.5570000E-02    1.8643610E-10
  1.5605000E-02    3.9559855E-11
  1.5640000E-02   -3.5991609E-11
  1.5675001E-02    6.9934725E-11
  1.5710000E-02    9.8134799E-11
  1.5745001E-02   -1.0628761E-10
  1.5780000E-02   -2.7304778E-10
  1.5814999E-02   -1.2732063E-10
  1.5850000E-02    1.4847513E-10
  1.5884999E-02    2.0187979E-10
  1.5920000E-02    5.5793564E-11
  1.5954999E-02    5.2386251E-12
  1.5990000E-02    9.2664820E-11
  1.6024999E-02    6.8573952E-11
  1.6060000E-02   -1.3926330E-10
  1.6094999E-02   -2.6854535E-10
  1.6130000E-02   -1.2153920E-10
  1.6164999E-02    1.4064959E-10
  1.6200000E-02    2.3867680E-10
  1.6235000E-02    1.4187822E-10
  1.6270000E-02    4.5013427E-11
  1.6305000E-02    5.8285148E-11
  1.6340001E-02    6.9842361E-11
  1.6375000E-02   -5.3252298E-11
  1.6410001E-02   -2.1892149E-10
  1.6445000E-02   -1.8289971E-10
  1.6480001E-02    1.0838706E-10
  1.6515000E-02    3.7701162E-10
  1.6550001E-02    3.4430001E-10
  1.6585000E-02    1.1230386E-10
  1.6620001E-02    1.3777258E-11
  1.6655000E-02    1.1561473E-10
  1.6690001E-02    1.4108857E-10
  1.6725000E-02   -3.9729262E-11
  1.6759999E-02   -1.3226589E-10
  1.6795000E-02    1.4956870E-10
  1.6829999E-02    5.8142513E-10
  1.6865000E-02    6.8024758E-10
  1.6899999E-02    3.8698036E-10
  1.6935000E-02    1.5193274E-10
  1.6969999E-02    2.7530489E-10
  1.7005000E-02    4.9846904E-10
  1.7039999E-02    4.6499110E-10
  1.7075000E-02    3.2089567E-10
  1.7109999E-02    4.9520649E-10
  1.7145000E-02    9.8788122E-10
  1.7180000E-02    1.2960252E-09
  1.7215000E-02    1.1347733E-09
  1.7250000E-02    8.5939944E-10
  1.7285001E-02    9.4547359E-10
  1.7320000E-02    1.3321547E-09
  1.7355001E-02    1.6022642E-09
  1.7390000E-02    1.6463769E-09
  1.7425001E-02    1.7730092E-09
  1.7460000E-02    2.1777919E-09
  1.7495001E-02    2.6434102E-09
  1.7530000E-02    2.8738820E-09
  1.7565001E-02    2.9084661E-09
  1.7600000E-02    3.0618428E-09
  1.7635001E-02    3.5396928E-09
  1.7670000E-02    4.2095571E-09
  1.7704999E-02    4.7627471E-09
  1.7740000E-02    5.0927649E-09
  1.7774999E-02    5.4511649E-09
  1.7810000E-02    6.1216396E-09
  1.7844999E-02    6.9974671E-09
  1.7880000E-02    7.7227265E-09
  1.7914999E-02    8.2780209E-09
  1.7950000E-02    9.0809609E-09
  1.7984999E-02    1.0328518E-08
  1.8020000E-02    1.1619733E-08
  1.8054999E-02    1.2561905E-08
  1.8090000E-02    1.3417703E-08
  1.8124999E-02    1.4705753E-08
  1.8160000E-02    1.6408407E-08
  1.8195000E-02    1.8092459E-08
  1.8230001E-02    1.9688828E-08
  1.8265000E-02    2.1590234E-08
  1.8300001E-02    2.3932820E-08
  1.8335000E-02    2.6315499E-08
  1.8370001E-02    2.8439654E-08
  1.8405000E-02    3.0597796E-08
  1.8440001E-02    3.3246923E-08
  1.8475000E-02    3.6407965E-08
  1.8510001E-02    3.9789299E-08
  1.8545000E-02    4.3303960E-08
  1.8580001E-02    4.7152838E-08
  1.8615000E-02    5.1427065E-08
  1.8650001E-02    5.5903673E-08
  1.8685000E-02    6.0361138E-08
  1.8719999E-02    6.4944665E-08
  1.8755000E-02    7.0025585E-08
  1.8789999E-02    7.5763751E-08
  1.8825000E-02    8.2013464E-08
  1.8859999E-02    8.8661061E-08
  1.8895000E-02    9.5814379E-08
  1.8929999E-02    1.0355364E-07
  1.8965000E-02    1.1168304E-07
  1.8999999E-02    1.1995795E-07
  1.9035000E-02    1.2848299E-07
  1.9069999E-02    1.3765124E-07
  1.9105000E-02    1.4772453E-07
  1.9140000E-02    1.5865692E-07
  1.9175000E-02    1.7026396E-07
  1.9210000E-02    1.8247263E-07
  1.9245001E-02    1.9542132E-07
  1.9280000E-02    2.0923737E-07
  1.9315001E-02    2.2372535E-07
  1.9350000E-02    2.3855134E-07
  1.9385001E-02    2.5380530E-07
  1.9420000E-02    2.7009852E-07
  1.9455001E-02    2.8789910E-07
  1.9490000E-02    3.0694875E-07
  1.9525001E-02    3.2668871E-07
  1.9560000E-02    3.4719648E-07
  1.9595001E-02    3.6898268E-07
  1.9630000E-02    3.9193429E-07
  1.9664999E-02    4.1545113E-07
  1.9700000E-02    4.3956251E-07
  1.9734999E-02    4.6496925E-07
  1.9770000E-02    4.9204834E-07
  1.9804999E-02    5.2050024E-07
  1.9840000E-02    5.5003483E-07
  1.9874999E-02    5.8088136E-07
  1.9910000E-02    6.1327319E-07
  1.9944999E-02    6.4682985E-07
  1.9980000E-02    6.8118868E-07
  2.0014999E-02    7.1674276E-07
  2.0050000E-02    7.5387817E-07
  2.0085000E-02    7.9235826E-07
  2.0120000E-02    8.3212035E-07
  2.0155000E-02    8.7350605E-07
  2.0190001E-02    9.1655176E-07
  2.0225000E-02    9.6108317E-07
  2.0260001E-02    1.0069908E-06
  2.0295000E-02    1.0541276E-06
  2.0330001E-02    1.1025670E-06
  2.0365000E-02    1.1524354E-06
  2.0400001E-02    1.2035312E-06
  2.0435000E-02    1.2560063E-06
  2.0470001E-02    1.3102897E-06
  2.0505000E-02    1.3659378E-06
  2.0540001E-02    1.4225418E-06
  2.0575000E-02    1.4807509E-06
  2.0609999E-02    1.5407907E-06
  2.0645000E-02    1.6021219E-06
  2.0679999E-02    1.6645636E-06
  2.0715000E-02    1.7278735E-06
  2.0749999E-02    1.7918663E-06
  2.0785000E-02    1.8572432E-06
  2.0819999E-02    1.9241106E-06
  2.0855000E-02    1.9917500E-06
  2.0889999E-02    2.0605139E-06
  2.0925000E-02    2.1306932E-06
  2.0959999E-02    2.2015397E-06
  2.0995000E-02    2.2733004E-06
  2.1029999E-02    2.3463208E-06
  2.1065000E-02    2.4193821E-06
  2.1100000E-02    2.4922476E-06
  2.1135001E-02    2.5658803E-06
  2.1170000E-02    2.6400151E-06
  2.1205001E-02    2.7146789E-06
  2.1240000E-02    2.7903584E-06
  2.1275001E-02    2.8660279E-06
  2.1310000E-02    2.9415985E-06
  2.1345001E-02    3.0180965E-06
  2.1380000E-02    3.0940266E-06
  2.1415001E-02    3.1684285E-06
  2.1450000E-02    3.2432570E-06
  2.1485001E-02    3.3183032E-06
  2.1520000E-02    3.3919289E-06
  2.1555001E-02    3.4652442E-06
  2.1590000E-02    3.5385040E-06
  2.1624999E-02    3.6106321E-06
  2.1660000E-02    3.6828019E-06
  2.1694999E-02    3.7546279E-06
  2.1730000E-02    3.8238645E-06
  2.1764999E-02    3.8918411E-06
  2.1800000E-02    3.9594984E-06
  2.1834999E-02    4.0249151E-06
  2.1870000E-02    4.0890995E-06
  2.1904999E-02    4.1527992E-06
  2.1940000E-02    4.2134684E-06
  2.1974999E-02    4.2728243E-06
  2.2010000E-02    4.3332539E-06
  2.2045000E-02    4.3907107E-06
  2.2080000E-02    4.4441726E-06
  2.2115000E-02    4.4974090E-06
  2.2150001E-02    4.5490433E-06
  2.2185000E-02    4.5974289E-06
  2.2220001E-02    4.6446457E-06
  2.2255000E-02    4.6892051E-06
  2.2290001E-02    4.7308363E-06
  2.2325000E-02    4.7731596E-06
  2.2360001E-02    4.8134380E-06
  2.2395000E-02    4.8488951E-06
  2.2430001E-02    4.8842621E-06
  2.2465000E-02    4.9185237E-06
  2.2500001E-02    4.9471037E-06
  2.2535000E-02    4.9744954E-06
  2.2569999E-02    5.0022750E-06
  2.2605000E-02    5.0253921E-06
  2.2639999E-02    5.0465064E-06
  2.2675000E-02    5.0682279E-06
  2.2709999E-02    5.0861872E-06
  2.2745000E-02    5.1020020E-06
  2.2779999E-02    5.1178831E-06
  2.2815000E-02    5.1293914E-06
  2.2849999E-02    5.1389602E-06
  2.2885000E-02    5.1499933E-06
  2.2919999E-02    5.1563043E-06
  2.2955000E-02    5.1591942E-06
  2.2990000E-02    5.1652764E-06
  2.3025000E-02    5.1689876E-06
  2.3060000E-02    5.1680054E-06
  2.3095001E-02    5.1690349E-06
  2.3130000E-02    5.1687575E-06
  2.3165001E-02    5.1638203E-06
  2.3200000E-02    5.1604497E-06
  2.3235001E-02    5.1566253E-06
  2.3270000E-02    5.1484617E-06
  2.3305001E-02    5.1415245E-06
  2.3340000E-02    5.1341044E-06
  2.3375001E-02    5.1225124E-06
  2.3410000E-02    5.1139218E-06
  2.3445001E-02    5.1066932E-06
  2.3480000E-02    5.0933349E-06
  2.3514999E-02    5.0809481E-06
  2.3550000E-02    5.0722406E-06
  2.3584999E-02    5.0590988E-06
  2.3620000E-02    5.0452659E-06
  2.3654999E-02    5.0345584E-06
  2.3690000E-02    5.0205572E-06
  2.3724999E-02    5.0067224E-06
  2.3760000E-02    4.9970963E-06
  2.3794999E-02    4.9843584E-06
  2.3830000E-02    4.9707046E-06
  2.3864999E-02    4.9614000E-06
  2.3900000E-02    4.9496794E-06
  2.3934999E-02    4.9370351E-06
  2.3970000E-02    4.9293840E-06
  2.4005000E-02    4.9193363E-06
  2.4040001E-02    4.9073919E-06
  2.4075000E-02    4.9018317E-06
  2.4110001E-02    4.8957613E-06
  2.4145000E-02    4.8865236E-06
  2.4180001E-02    4.8828838E-06
  2.4215000E-02    4.8804882E-06
  2.4250001E-02    4.8756178E-06
  2.4285000E-02    4.8756756E-06
  2.4320001E-02    4.8761990E-06
  2.4355000E-02    4.8731094E-06
  2.4390001E-02    4.8752590E-06
  2.4425000E-02    4.8790757E-06
  2.4460001E-02    4.8784159E-06
  2.4495000E-02    4.8822476E-06
  2.4529999E-02    4.8884644E-06
  2.4565000E-02    4.8894958E-06
  2.4599999E-02    4.8947181E-06
  2.4635000E-02    4.9038199E-06
  2.4669999E-02    4.9063701E-06
  2.4705000E-02    4.9103373E-06
  2.4739999E-02    4.9190958E-06
  2.4775000E-02    4.9222631E-06
  2.4809999E-02    4.9248438E-06
  2.4845000E-02    4.9308583E-06
  2.4879999E-02    4.9311916E-06
  2.4915000E-02    4.9313335E-06
  2.4950000E-02    4.9360037E-06
  2.4985000E-02    4.9337182E-06
  2.5020000E-02    4.9286409E-06
  2.5055001E-02    4.9288983E-06
  2.5090000E-02    4.9227210E-06
  2.5125001E-02    4.9111386E-06
  2.5160000E-02    4.9050132E-06
  2.5195001E-02    4.8941447E-06
  2.5230000E-02    4.8756883E-06
  2.5265001E-02    4.8615484E-06
  2.5300000E-02    4.8456677E-06
  2.5335001E-02    4.8241568E-06
  2.5370000E-02    4.8076354E-06
  2.5405001E-02    4.7898870E-06
  2.5440000E-02    4.7647268E-06
  2.5474999E-02    4.7441749E-06
  2.5510000E-02    4.7255307E-06
  2.5544999E-02    4.7000863E-06
  2.5580000E-02    4.6778023E-06
  2.5614999E-02    4.6591654E-06
  2.5650000E-02    4.6356863E-06
  2.5684999E-02    4.6154091E-06
  2.5720000E-02    4.6000946E-06
  2.5754999E-02    4.5815223E-06
  2.5790000E-02    4.5670572E-06
  2.5824999E-02    4.5595871E-06
  2.5860000E-02    4.5494953E-06
  2.5895000E-02    4.5421816E-06
  2.5930000E-02    4.5426823E-06
  2.5965000E-02    4.5420938E-06
  2.6000001E-02    4.5443790E-06
  2.6035000E-02    4.5558122E-06
  2.6070001E-02    4.5665488E-06
  2.6105000E-02    4.5774091E-06
  2.6140001E-02    4.5972802E-06
  2.6175000E-02    4.6188484E-06
  2.6210001E-02    4.6391015E-06
  2.6245000E-02    4.6656896E-06
  2.6280001E-02    4.6936511E-06
  2.6315000E-02    4.7185199E-06
  2.6350001E-02    4.7472827E-06
  2.6385000E-02    4.7774624E-06
  2.6419999E-02    4.8029806E-06
  2.6455000E-02    4.8280695E-06
  2.6489999E-02    4.8526831E-06
  2.6525000E-02    4.8733359E-06
  2.6559999E-02    4.8934694E-06
  2.6595000E-02    4.9117020E-06
  2.6629999E-02    4.9237751E-06
  2.6665000E-02    4.9336913E-06
  2.6699999E-02    4.9407167E-06
  2.6735000E-02    4.9389942E-06
  2.6769999E-02    4.9329069E-06
  2.6805000E-02    4.9248333E-06
  2.6839999E-02    4.9078790E-06
  2.6875000E-02    4.8845718E-06
  2.6910000E-02    4.8607208E-06
  2.6945001E-02    4.8302099E-06
  2.6980000E-02    4.7919630E-06