 -4.8000002E-03    1.0000000E-24
 -4.7650002E-03    1.0000000E-24
 -4.7300002E-03    1.0000001E-24
 -4.6950001E-03    1.0000002E-24
 -4.6600001E-03    1.0000001E-24
 -4.6250001E-03    1.0000001E-24
 -4.5900000E-03    1.0000001E-24
 -4.5550000E-03    1.0000001E-24
 -4.5200000E-03    1.0000001E-24
 -4.4849999E-03    1.0000002E-24
 -4.4499999E-03    1.0000001E-24
 -4.4149999E-03    1.0000002E-24
 -4.3799998E-03    1.0000003E-24
 -4.3449998E-03    1.0000001E-24
 -4.3100002E-03    1.0000000E-24
 -4.2750002E-03    1.0000001E-24
 -4.2400002E-03    1.0000001E-24
 -4.2050001E-03    9.9999982E-25
 -4.1700001E-03    1.0000000E-24
 -4.1350001E-03    1.0000002E-24
 -4.1000000E-03    1.0000003E-24
 -4.0650000E-03    9.9999992E-25
 -4.0300000E-03    9.9999972E-25
 -3.9949999E-03    9.9999992E-25
 -3.9599999E-03    1.0000002E-24
 -3.9249999E-03    1.0000005E-24
 -3.8900001E-03    1.0000002E-24
 -3.8550000E-03    1.0000000E-24
 -3.8200000E-03    1.0000000E-24
 -3.7849999E-03    1.0000001E-24
 -3.7499999E-03    1.0000004E-24
 -3.7150001E-03    1.0000004E-24
 -3.6800001E-03    1.0000000E-24
 -3.6450000E-03    9.9999972E-25
 -3.6100000E-03    1.0000000E-24
 -3.5750000E-03    1.0000000E-24
 -3.5399999E-03    9.9999982E-25
 -3.5049999E-03    1.0000002E-24
 -3.4700001E-03    1.0000005E-24
 -3.4350001E-03    1.0000002E-24
 -3.4000000E-03    9.9999992E-25
 -3.3650000E-03    1.0000002E-24
 -3.3300000E-03    1.0000001E-24
 -3.2949999E-03    9.9999972E-25
 -3.2599999E-03    9.9999963E-25
 -3.2250001E-03    1.0000002E-24
 -3.1900001E-03    1.0000004E-24
 -3.1550000E-03    1.0000002E-24
 -3.1200000E-03    1.0000001E-24
 -3.0850000E-03    9.9999992E-25
 -3.0499999E-03    1.0000000E-24
 -3.0149999E-03    1.0000003E-24
 -2.9800001E-03    1.0000002E-24
 -2.9450001E-03    1.0000001E-24
 -2.9100000E-03    1.0000000E-24
 -2.8750000E-03    1.0000000E-24
 -2.8400000E-03    1.0000000E-24
 -2.8049999E-03    1.0000001E-24
 -2.7699999E-03    1.0000003E-24
 -2.7350001E-03    1.0000003E-24
 -2.7000001E-03    9.9999992E-25
 -2.6650000E-03    9.9999963E-25
 -2.6300000E-03    1.0000000E-24
 -2.5950000E-03    1.0000009E-24
 -2.5599999E-03    1.0000010E-24
 -2.5249999E-03    1.0000003E-24
 -2.4900001E-03    9.9999963E-25
 -2.4550001E-03    9.9999992E-25
 -2.4200000E-03    1.0000003E-24
 -2.3850000E-03    1.0000003E-24
 -2.3500000E-03    1.0000002E-24
 -2.3149999E-03    9.9999972E-25
 -2.2799999E-03    9.9999943E-25
 -2.2450001E-03    9.9999982E-25
 -2.2100001E-03    1.0000005E-24
 -2.1750000E-03    1.0000002E-24
 -2.1400000E-03    9.9999982E-25
 -2.1050000E-03    1.0000002E-24
 -2.0699999E-03    1.0000010E-24
 -2.0349999E-03    1.0000008E-24
 -2.0000001E-03    1.0000002E-24
 -1.9650001E-03    1.0000000E-24
 -1.9300000E-03    9.9999992E-25
 -1.8950000E-03    9.9999953E-25
 -1.8600000E-03    9.9999982E-25
 -1.8250000E-03    1.0000004E-24
 -1.7900000E-03    1.0000005E-24
 -1.7550000E-03    9.9999992E-25
 -1.7199999E-03    9.9999972E-25
 -1.6850000E-03    1.0000000E-24
 -1.6500000E-03    1.0000006E-24
 -1.6150000E-03    1.0000003E-24
 -1.5800000E-03    9.9999953E-25
 -1.5450000E-03    9.9999992E-25
 -1.5100000E-03    1.0000009E-24
 -1.4750001E-03    1.0000004E-24
 -1.4400000E-03    9.9999972E-25
 -1.4050000E-03    9.9999953E-25
 -1.3700000E-03    9.9999972E-25
 -1.3350000E-03    1.0000001E-24
 -1.3000000E-03    1.0000004E-24
 -1.2650000E-03    1.0000000E-24
 -1.2300001E-03    9.9999972E-25
 -1.1950000E-03    1.0000001E-24
 -1.1600000E-03    1.0000005E-24
 -1.1250000E-03    1.0000001E-24
 -1.0900000E-03    9.9999963E-25
 -1.0550000E-03    9.9999992E-25
 -1.0200000E-03    1.0000005E-24
 -9.8500005E-04    1.0000004E-24
 -9.5000002E-04    1.0000002E-24
 -9.1499998E-04    1.0000007E-24
 -8.8000001E-04    1.0000009E-24
 -8.4499997E-04    1.0000003E-24
 -8.1000000E-04    9.9999963E-25
 -7.7500002E-04    9.9999953E-25
 -7.3999999E-04    9.9999982E-25
 -7.0500001E-04    9.9999972E-25
 -6.6999998E-04    9.9999972E-25
 -6.3500000E-04    1.0000004E-24
 -6.0000003E-04    1.0000009E-24
 -5.6499999E-04    1.0000003E-24
 -5.3000002E-04    9.9999963E-25
 -4.9499999E-04    9.9999972E-25
 -4.6000001E-04    1.0000003E-24
 -4.2500001E-04    1.0000005E-24
 -3.9000000E-04    9.9999972E-25
 -3.5500000E-04    9.9999913E-25
 -3.1999999E-04    9.9999982E-25
 -2.8499999E-04    1.0000010E-24
 -2.5000001E-04    1.0000010E-24
 -2.1499999E-04    1.0000001E-24
 -1.8000000E-04    9.9999992E-25
 -1.4500000E-04    9.9999992E-25
 -1.1000000E-04    9.9999982E-25
 -7.5000004E-05    9.9999982E-25
 -3.9999999E-05    1.0000005E-24
 -4.9999999E-06    1.0000012E-24
  2.9999999E-05    1.0000010E-24
  6.5000000E-05    1.0000000E-24
  9.9999997E-05    9.9999933E-25
  1.3499999E-04    9.9999972E-25
  1.7000000E-04    1.0000005E-24
  2.0500000E-04    1.0000005E-24
  2.3999999E-04    1.0000000E-24
  2.7500000E-04    9.9999972E-25
  3.1000000E-04    9.9999982E-25
  3.4500001E-04    9.9999992E-25
  3.8000001E-04    9.9999982E-25
  4.1499999E-04    1.0000000E-24
  4.4999999E-04    1.0000004E-24
  4.8500000E-04    1.0000004E-24
  5.2000000E-04    9.9999933E-25
  5.5499998E-04    9.9999874E-25
  5.9000001E-04    1.0000003E-24
  6.2499999E-04    1.0000018E-24
  6.6000002E-04    1.0000006E-24
  6.9500000E-04    9.9999874E-25
  7.3000003E-04    9.9999923E-25
  7.6500000E-04    1.0000008E-24
  7.9999998E-04    1.0000013E-24
  8.3500001E-04    1.0000004E-24
  8.6999999E-04    9.9999963E-25
  9.0500002E-04    9.9999933E-25
  9.4000000E-04    9.9999943E-25
  9.7499997E-04    1.0000003E-24
  1.0100000E-03    1.0000010E-24
  1.0450000E-03    1.0000007E-24
  1.0800000E-03    1.0000002E-24
  1.1150000E-03    9.9999982E-25
  1.1500000E-03    9.9999963E-25
  1.1849999E-03    9.9999943E-25
  1.2200000E-03    9.9999963E-25
  1.2550000E-03    1.0000002E-24
  1.2900000E-03    1.0000002E-24
  1.3250000E-03    9.9999963E-25
  1.3600000E-03    1.0000003E-24
  1.3950000E-03    1.0000017E-24
  1.4299999E-03    1.0000010E-24
  1.4650000E-03    9.9999884E-25
  1.5000000E-03    9.9999854E-25
  1.5350000E-03    1.0000010E-24
  1.5700000E-03    1.0000038E-24
  1.6050000E-03    9.9999992E-25
  1.6400000E-03    9.9999026E-25
  1.6749999E-03    1.0000011E-24
  1.7100000E-03    1.0000281E-24
  1.7450000E-03    9.9999460E-25
  1.7800000E-03    9.9993149E-25
  1.8150000E-03    1.0000220E-24
  1.8500000E-03    1.0001518E-24
  1.8850000E-03    9.9993208E-25
  1.9200000E-03    9.9968803E-25
  1.9550000E-03    1.0001737E-24
  1.9900000E-03    1.0006112E-24
  2.0250001E-03    9.9961279E-25
  2.0600001E-03    9.9883744E-25
  2.0949999E-03    1.0007757E-24
  2.1299999E-03    1.0021801E-24
  2.1650000E-03    9.9859200E-25
  2.2000000E-03    9.9594409E-25
  2.2350000E-03    1.0023324E-24
  2.2700001E-03    1.0075259E-24
  2.3050001E-03    9.9652469E-25
  2.3399999E-03    9.8606233E-25
  2.3749999E-03    1.0044232E-24
  2.4100000E-03    1.0257022E-24
  2.4450000E-03    9.9607938E-25
  2.4800000E-03    9.5301951E-25
  2.5150001E-03    9.9885390E-25
  2.5500001E-03    1.0847016E-24
  2.5849999E-03    1.0177794E-24
  2.6199999E-03    8.5012019E-25
  2.6550000E-03    9.3930723E-25
  2.6900000E-03    1.2590346E-24
  2.7250000E-03    1.1592476E-24
  2.7600001E-03    5.6503720E-25
  2.7950001E-03    6.3051591E-25
  2.8299999E-03    1.7050755E-24
  2.8649999E-03    1.7941304E-24
  2.9000000E-03   -9.3416249E-26
  2.9350000E-03   -6.1426143E-25
  2.9700000E-03    2.5988135E-24
  3.0050001E-03    4.1365322E-24
  3.0400001E-03   -1.1454309E-24
  3.0749999E-03   -4.8583640E-24
  3.1099999E-03    3.4823519E-24
  3.1450000E-03    1.1547943E-23
  3.1800000E-03   -9.9474778E-25
  3.2150000E-03   -1.7322314E-23
  3.2500001E-03    3.7070492E-25
  3.2850001E-03    3.1678830E-23
  3.3199999E-03    8.9528045E-24
  3.3549999E-03   -4.8383379E-23
  3.3900000E-03   -2.3657311E-23
  3.4250000E-03    7.7030355E-23
  3.4600000E-03    5.9812115E-23
  3.4950001E-03   -1.0994965E-22
  3.5300001E-03   -1.2257946E-22
  3.5649999E-03    1.5193368E-22
  3.5999999E-03    2.4023546E-22
  3.6350000E-03   -1.8399112E-22
  3.6700000E-03   -4.3405066E-22
  3.7050000E-03    1.8803681E-22
  3.7400001E-03    7.5094474E-22
  3.7750001E-03   -1.0318082E-22
  3.8099999E-03   -1.2287673E-21
  3.8449999E-03   -1.5971496E-22
  3.8800000E-03    1.9184106E-21
  3.9149998E-03    7.7395444E-22
  3.9499998E-03   -2.8286469E-21
  3.9849998E-03   -1.9943918E-21
  4.0199999E-03    3.9126798E-21
  4.0549999E-03    4.2195481E-21
  4.0899999E-03   -4.9563394E-21
  4.1250000E-03   -7.9789349E-21
  4.1600000E-03    5.4817461E-21
  4.1950000E-03    1.3951046E-20
  4.2300001E-03   -4.5252038E-21
  4.2650001E-03   -2.2845226E-20
  4.3000001E-03    4.1148686E-22
  4.3350002E-03    3.5215211E-20
  4.3700002E-03    9.5899774E-21
  4.4049998E-03   -5.0991403E-20
  4.4399998E-03   -2.9547777E-20
  4.4749998E-03    6.8753017E-20
  4.5099999E-03    6.5102320E-20
  4.5449999E-03   -8.4497314E-20
  4.5799999E-03   -1.2330943E-19
  4.6150000E-03    8.9945222E-20
  4.6500000E-03    2.1187602E-19
  4.6850001E-03   -7.0255984E-20
  4.7200001E-03   -3.3715525E-19
  4.7550001E-03    1.4716961E-21
  4.7900002E-03    5.0037065E-19
  4.8250002E-03    1.5190889E-19
  4.8600002E-03   -6.9119026E-19
  4.8949998E-03   -4.3804668E-19
  4.9299998E-03    8.7810413E-19
  4.9649999E-03    9.1593347E-19
  4.9999999E-03   -9.9518885E-19
  5.0349999E-03   -1.6478570E-18
  5.0700000E-03    9.2599695E-19
  5.1050000E-03    2.6827802E-18
  5.1400000E-03   -4.8666608E-19
  5.1750001E-03   -4.0264162E-18
  5.2100001E-03   -5.8688449E-19
  5.2450001E-03    5.5942018E-18
  5.2800002E-03    2.6396074E-18
  5.3150002E-03   -7.1447668E-18
  5.3500002E-03   -6.0733569E-18
  5.3849998E-03    8.1956749E-18
  5.4199998E-03    1.1281845E-17
  5.4549999E-03   -7.9301648E-18
  5.4899999E-03   -1.8524946E-17
  5.5249999E-03    5.1149367E-18
  5.5600000E-03    2.7723440E-17
  5.5950000E-03    1.9361132E-18
  5.6300000E-03   -3.8161872E-17
  5.6650001E-03   -1.5299213E-17
  5.7000001E-03    4.8103928E-17
  5.7350001E-03    3.7208715E-17
  5.7700002E-03   -5.4354121E-17
  5.8050002E-03   -6.9573089E-17
  5.8400002E-03    5.1844974E-17
  5.8749998E-03    1.1315904E-16
  5.9099998E-03   -3.3388702E-17
  5.9449999E-03   -1.6639106E-16
  5.9799999E-03   -1.0198684E-17
  6.0149999E-03    2.2377980E-16
  6.0500000E-03    8.9326401E-17
  6.0850000E-03   -2.7410680E-16
  6.1200000E-03   -2.1389706E-16
  6.1550001E-03    2.9866228E-16
  6.1900001E-03    3.9031384E-16
  6.2250001E-03   -2.7005094E-16
  6.2600002E-03   -6.1703920E-16
  6.2950002E-03    1.5232246E-16
  6.3299998E-03    8.7875873E-16
  6.3649998E-03    9.6596445E-17
  6.3999998E-03   -1.1396196E-15
  6.4349999E-03   -5.1907815E-16
  6.4699999E-03    1.3365969E-15
  6.5049999E-03    1.1475710E-15
  6.5400000E-03   -1.3747731E-15
  6.5750000E-03   -1.9893988E-15
  6.6100000E-03    1.1270886E-15
  6.6450001E-03    3.0068560E-15
  6.6800001E-03   -4.4176082E-16
  6.7150001E-03   -4.0942519E-15
  6.7500002E-03   -8.3915252E-16
  6.7850002E-03    5.0554412E-15
  6.8199998E-03    2.8470035E-15
  6.8549998E-03   -5.5876358E-15
  6.8899998E-03   -5.6380804E-15
  6.9249999E-03    5.2795369E-15
  6.9599999E-03    9.1306713E-15
  6.9949999E-03   -3.6335769E-15
  7.0300000E-03   -1.3033295E-14
  7.0650000E-03    1.2239451E-16
  7.1000000E-03    1.6775340E-14
  7.1350001E-03    5.7120963E-15
  7.1700001E-03   -1.9457768E-14
  7.2050001E-03   -1.4113679E-14
  7.2400002E-03    1.9847544E-14
  7.2750002E-03    2.4926120E-14
  7.3099998E-03   -1.6443674E-14
  7.3449998E-03   -3.7384934E-14
  7.3799998E-03    7.6423548E-15
  7.4149999E-03    4.9920541E-14
  7.4499999E-03    7.9780043E-15
  7.4850000E-03   -6.0023858E-14
  7.5200000E-03   -3.1246629E-14
  7.5550000E-03    6.4240605E-14
  7.5900001E-03    6.1886138E-14
  7.6250001E-03   -5.8367678E-14
  7.6600001E-03   -9.7949968E-14
  7.6950002E-03    3.7920594E-14
  7.7300002E-03    1.3530905E-13
  7.7650002E-03    1.0823508E-15
  7.7999998E-03   -1.6732832E-13
  7.8349998E-03   -6.1020491E-14
  7.8699999E-03    1.8490652E-13
  7.9049999E-03    1.4132991E-13
  7.9399999E-03   -1.7706329E-13
  7.9750000E-03   -2.3708994E-13
  8.0100000E-03    1.3222847E-13
  8.0450000E-03    3.3780837E-13
  8.0800001E-03   -4.0310972E-14
  8.1150001E-03   -4.2677095E-13
  8.1500001E-03   -1.0451146E-13
  8.1850002E-03    4.8137649E-13
  8.2200002E-03    3.0052870E-13
  8.2550002E-03   -4.7487117E-13
  8.2900003E-03   -5.3523830E-13
  8.3250003E-03    3.7978483E-13
  8.3600003E-03    7.8280394E-13
  8.3950004E-03   -1.7312927E-13
  8.4300004E-03   -1.0031239E-12
  8.4650004E-03   -1.5695396E-13
  8.5000005E-03    1.1434518E-12
  8.5349996E-03    6.0388245E-13
  8.5699996E-03   -1.1433618E-12
  8.6049996E-03   -1.1359414E-12
  8.6399997E-03    9.4344996E-13
  8.6749997E-03    1.6919105E-12
  8.7099997E-03   -4.9751604E-13
  8.7449998E-03   -2.1809360E-12
  8.7799998E-03   -2.1291760E-13
  8.8149998E-03    2.4884591E-12
  8.8499999E-03    1.1639153E-12
  8.8849999E-03   -2.4893978E-12
  8.9199999E-03   -2.2773881E-12
  8.9550000E-03    2.0685862E-12
  8.9900000E-03    3.4159639E-12
  9.0250000E-03   -1.1468442E-12
  9.0600001E-03   -4.3880242E-12
  9.0950001E-03   -2.9079915E-13
  9.1300001E-03    4.9654781E-12
  9.1650002E-03    2.1698745E-12
  9.2000002E-03   -4.9150441E-12
  9.2350002E-03   -4.3105675E-12
  9.2700003E-03    4.0411030E-12
  9.3050003E-03    6.4276145E-12
  9.3400003E-03   -2.2350203E-12
  9.3750004E-03   -8.1512835E-12
  9.4100004E-03   -4.7741379E-13
  9.4450004E-03    9.0716202E-12
  9.4799995E-03    3.9009867E-12
  9.5149996E-03   -8.8036228E-12
  9.5499996E-03   -7.6593679E-12
  9.5849996E-03    7.0657412E-12
  9.6199997E-03    1.1215405E-11
  9.6549997E-03   -3.7594034E-12
  9.6899997E-03   -1.3927654E-11
  9.7249998E-03   -9.6593870E-13
  9.7599998E-03    1.5141288E-11
  9.7949998E-03    6.6788949E-12
  9.8299999E-03   -1.4303837E-11
  9.8649999E-03   -1.2677915E-11
  9.8999999E-03    1.1088518E-11
  9.9350000E-03    1.8057136E-11
  9.9700000E-03   -5.5018858E-12
  1.0005000E-02   -2.1824658E-11
  1.0040000E-02   -2.0487913E-12
  1.0075000E-02    2.3060111E-11
  1.0110000E-02    1.0748617E-11
  1.0145000E-02   -2.1088738E-11
  1.0180000E-02   -1.9440441E-11
  1.0215000E-02    1.5642897E-11
  1.0250000E-02    2.6762981E-11
  1.0285000E-02   -6.9794578E-12
  1.0320000E-02   -3.1349496E-11
  1.0355000E-02   -4.0764584E-12
  1.0390000E-02    3.2060375E-11
  1.0425000E-02    1.6182038E-11
  1.0460000E-02   -2.8211506E-11
  1.0495000E-02   -2.7626054E-11
  1.0530000E-02    1.9756006E-11
  1.0565000E-02    3.6563093E-11
  1.0600000E-02   -7.3813351E-12
  1.0635000E-02   -4.1302590E-11
  1.0670000E-02   -7.5055162E-12
  1.0705000E-02    4.0610224E-11
  1.0740000E-02    2.2916266E-11
  1.0775000E-02   -3.3972974E-11
  1.0810000E-02   -3.6536399E-11
  1.0845000E-02    2.1778598E-11
  1.0880000E-02    4.6071522E-11
  1.0915000E-02   -5.3660067E-12
  1.0950000E-02   -4.9640170E-11
  1.0985000E-02   -1.3084747E-11
  1.1020000E-02    4.6149085E-11
  1.1055000E-02    3.0829665E-11
  1.1090000E-02   -3.5575171E-11
  1.1125000E-02   -4.4975010E-11
  1.1160000E-02    1.9089196E-11
  1.1195000E-02    5.2967210E-11
  1.1230000E-02    1.0159847E-12
  1.1265000E-02   -5.3086063E-11
  1.1300000E-02   -2.1608448E-11
  1.1335000E-02    4.4859047E-11
  1.1370000E-02    3.9205798E-11
  1.1405000E-02   -2.9293915E-11
  1.1440000E-02   -5.0612022E-11
  1.1475000E-02    8.8334296E-12
  1.1510000E-02    5.3575817E-11
  1.1545000E-02    1.2997938E-11
  1.1580000E-02   -4.7320963E-11
  1.1615000E-02   -3.2205405E-11
  1.1650000E-02    3.2831300E-11
  1.1685000E-02    4.5102234E-11
  1.1720000E-02   -1.2799178E-11
  1.1755000E-02   -4.9124097E-11
  1.1790000E-02   -8.8243926E-12
  1.1825000E-02    4.3477964E-11
  1.1860000E-02    2.7631279E-11
  1.1895000E-02   -2.9419408E-11
  1.1930000E-02   -3.9722153E-11
  1.1965000E-02    1.0070961E-11
  1.2000000E-02    4.2617614E-11
  1.2035000E-02    1.0197103E-11
  1.2070000E-02   -3.5928233E-11
  1.2105000E-02   -2.6765328E-11
  1.2140000E-02    2.1561237E-11
  1.2175000E-02    3.5954462E-11
  1.2210000E-02   -3.2726254E-12
  1.2245000E-02   -3.6006146E-11
  1.2280000E-02   -1.4338065E-11
  1.2315000E-02    2.7500226E-11
  1.2350000E-02    2.7018896E-11
  1.2385000E-02   -1.3173487E-11
  1.2420000E-02   -3.1953731E-11
  1.2455000E-02   -2.7677346E-12
  1.2490000E-02    2.8591048E-11
  1.2525000E-02    1.5837578E-11
  1.2560000E-02   -1.8884786E-11
  1.2595000E-02   -2.2727086E-11
  1.2630000E-02    6.6254311E-12
  1.2665000E-02    2.2376993E-11
  1.2700000E-02    3.8940982E-12
  1.2735000E-02   -1.6209298E-11
  1.2770000E-02   -9.2557177E-12
  1.2805000E-02    7.6472223E-12
  1.2840000E-02    8.0331939E-12
  1.2875000E-02   -1.0882413E-12
  1.2910000E-02   -1.4970429E-12
  1.2945000E-02    3.2797186E-13
  1.2980000E-02   -6.5809454E-12
  1.3015000E-02   -6.9473294E-12
  1.3050000E-02    1.1219651E-11
  1.3085000E-02    1.9533338E-11
  1.3120000E-02   -7.9387859E-12
  1.3155000E-02   -3.3874313E-11
  1.3190000E-02   -5.7154611E-12
  1.3225000E-02    4.3796310E-11
  1.3260000E-02    2.8824502E-11
  1.3295000E-02   -4.2869094E-11
  1.3330000E-02   -5.6474429E-11
  1.3365000E-02    2.6900045E-11
  1.3400000E-02    8.0848800E-11
  1.3435000E-02    4.2172064E-12
  1.3470000E-02   -9.3527165E-11
  1.3505000E-02   -4.6222651E-11
  1.3540000E-02    8.7530976E-11
  1.3575000E-02    9.0908447E-11
  1.3610000E-02   -5.9269568E-11
  1.3645000E-02   -1.2715115E-10
  1.3680000E-02    1.0794858E-11
  1.3715000E-02    1.4388502E-10
  1.3750000E-02    4.9634213E-11
  1.3785000E-02   -1.3392815E-10
  1.3820000E-02   -1.0986435E-10
  1.3855000E-02    9.5818763E-11
  1.3890000E-02    1.5668984E-10
  1.3925000E-02   -3.4054332E-11
  1.3960000E-02   -1.7805167E-10
  1.3995000E-02   -4.0623907E-11
  1.4030000E-02    1.6635218E-10
  1.4065000E-02    1.1275172E-10
  1.4100000E-02   -1.2194419E-10
  1.4135000E-02   -1.6706296E-10
  1.4170000E-02    5.2547883E-11
  1.4205000E-02    1.9235873E-10
  1.4240000E-02    2.9971990E-11
  1.4275000E-02   -1.8142025E-10
  1.4310000E-02   -1.0937765E-10
  1.4345000E-02    1.3414533E-10
  1.4380000E-02    1.6766252E-10
  1.4415000E-02   -6.0738518E-11
  1.4450000E-02   -1.9268294E-10
  1.4485000E-02   -2.2829853E-11
  1.4520000E-02    1.8090579E-10
  1.4555000E-02    1.0044125E-10
  1.4590000E-02   -1.3587381E-10
  1.4625000E-02   -1.5986895E-10
  1.4660000E-02    6.1025143E-11
  1.4695000E-02    1.8160957E-10
  1.4730000E-02    2.0716973E-11
  1.4765000E-02   -1.6721963E-10
  1.4800000E-02   -9.7340400E-11
  1.4835000E-02    1.1177984E-10
  1.4870000E-02    1.3655108E-10
  1.4905000E-02   -5.3664309E-11
  1.4940000E-02   -1.6523724E-10
  1.4975000E-02   -3.6460186E-11
  1.5010000E-02    1.2747527E-10
  1.5045000E-02    7.7875296E-11
  1.5080000E-02   -1.0614692E-10
  1.5115000E-02   -1.5106888E-10
  1.5150000E-02   -4.3271883E-12
  1.5185000E-02    9.7624464E-11
  1.5220000E-02   -5.0623746E-12
  1.5255000E-02   -1.5950999E-10
  1.5290000E-02   -1.4320511E-10
  1.5325000E-02   -3.7444058E-12
  1.5360000E-02    2.2335571E-11
  1.5395000E-02   -1.2487597E-10
  1.5430000E-02   -2.4459412E-10
  1.5465000E-02   -1.9146540E-10
  1.5500000E-02   -9.5139722E-11
  1.5535000E-02   -1.5200066E-10
  1.5570000E-02   -3.2391095E-10
  1.5605000E-02   -4.0758147E-10
  1.5640000E-02   -3.5471218E-10
  1.5675001E-02   -3.4454389E-10
  1.5710000E-02   -5.0405441E-10
  1.5745001E-02   -7.1344197E-10
  1.5780000E-02   -7.9705986E-10
  1.5814999E-02   -8.0189111E-10
  1.5850000E-02   -9.2793806E-10
  1.5884999E-02   -1.2170881E-09
  1.5920000E-02   -1.4918171E-09
  1.5954999E-02   -1.6448136E-09
  1.5990000E-02   -1.8171689E-09
  1.6024999E-02   -2.1773110E-09
  1.6060000E-02   -2.6600089E-09
  1.6094999E-02   -3.0868665E-09
  1.6130000E-02   -3.4623073E-09
  1.6164999E-02   -3.9662464E-09
  1.6200000E-02   -4.6795470E-09
  1.6235000E-02   -5.4923821E-09
  1.6270000E-02   -6.3056622E-09
  1.6305000E-02   -7.1817934E-09
  1.6340001E-02   -8.2506171E-09
  1.6375000E-02   -9.5581809E-09
  1.6410001E-02   -1.1048123E-08
  1.6445000E-02   -1.2651668E-08
  1.6480001E-02   -1.4395702E-08
  1.6515000E-02   -1.6428364E-08
  1.6550001E-02   -1.8873804E-08
  1.6585000E-02   -2.1660266E-08
  1.6620001E-02   -2.4632127E-08
  1.6655000E-02   -2.7867266E-08
  1.6690001E-02   -3.1676752E-08
  1.6725000E-02   -3.6186844E-08
  1.6759999E-02   -4.1167631E-08
  1.6795000E-02   -4.6473279E-08
  1.6829999E-02   -5.2410844E-08
  1.6865000E-02   -5.9378223E-08
  1.6899999E-02   -6.7323505E-08
  1.6935000E-02   -7.5936562E-08
  1.6969999E-02   -8.5291006E-08
  1.7005000E-02   -9.5891821E-08
  1.7039999E-02   -1.0804690E-07
  1.7075000E-02   -1.2156767E-07
  1.7109999E-02   -1.3625751E-07
  1.7145000E-02   -1.5241571E-07
  1.7180000E-02   -1.7060286E-07
  1.7215000E-02   -1.9104596E-07
  1.7250000E-02   -2.1356290E-07
  1.7285001E-02   -2.3810716E-07
  1.7320000E-02   -2.6514400E-07
  1.7355001E-02   -2.9530239E-07
  1.7390000E-02   -3.2878785E-07
  1.7425001E-02   -3.6543648E-07
  1.7460000E-02   -4.0537716E-07
  1.7495001E-02   -4.4930744E-07
  1.7530000E-02   -4.9791390E-07
  1.7565001E-02   -5.5131716E-07
  1.7600000E-02   -6.0944313E-07
  1.7635001E-02   -6.7275244E-07
  1.7670000E-02   -7.4215910E-07
  1.7704999E-02   -8.1827739E-07
  1.7740000E-02   -9.0121449E-07
  1.7774999E-02   -9.9120564E-07
  1.7810000E-02   -1.0890501E-06
  1.7844999E-02   -1.1957015E-06
  1.7880000E-02   -1.3117171E-06
  1.7914999E-02   -1.4373962E-06
  1.7950000E-02   -1.5733234E-06
  1.7984999E-02   -1.7205024E-06
  1.8020000E-02   -1.8799434E-06
  1.8054999E-02   -2.0523164E-06
  1.8090000E-02   -2.2381437E-06
  1.8124999E-02   -2.4382709E-06
  1.8160000E-02   -2.6539374E-06
  1.8195000E-02   -2.8862942E-06
  1.8230001E-02   -3.1360619E-06
  1.8265000E-02   -3.4039306E-06
  1.8300001E-02   -3.6911233E-06
  1.8335000E-02   -3.9991833E-06
  1.8370001E-02   -4.3292675E-06
  1.8405000E-02   -4.6821092E-06
  1.8440001E-02   -5.0587428E-06
  1.8475000E-02   -5.4607931E-06
  1.8510001E-02   -5.8898509E-06
  1.8545000E-02   -6.3469615E-06
  1.8580001E-02   -6.8330469E-06
  1.8615000E-02   -7.3495457E-06
  1.8650001E-02   -7.8982584E-06
  1.8685000E-02   -8.4807061E-06
  1.8719999E-02   -9.0979738E-06
  1.8755000E-02   -9.7511947E-06
  1.8789999E-02   -1.0441938E-05
  1.8825000E-02   -1.1171988E-05
  1.8859999E-02   -1.1942833E-05
  1.8895000E-02   -1.2755552E-05
  1.8929999E-02   -1.3611302E-05
  1.8965000E-02   -1.4511681E-05
  1.8999999E-02   -1.5458441E-05
  1.9035000E-02   -1.6452886E-05
  1.9069999E-02   -1.7495857E-05
  1.9105000E-02   -1.8588380E-05
  1.9140000E-02   -1.9732022E-05
  1.9175000E-02   -2.0928315E-05
  1.9210000E-02   -2.2178077E-05
  1.9245001E-02   -2.3481727E-05
  1.9280000E-02   -2.4840137E-05
  1.9315001E-02   -2.6254713E-05
  1.9350000E-02   -2.7726435E-05
  1.9385001E-02   -2.9255330E-05
  1.9420000E-02   -3.0841278E-05
  1.9455001E-02   -3.2484921E-05
  1.9490000E-02   -3.4187196E-05
  1.9525001E-02   -3.5948065E-05
  1.9560000E-02   -3.7766633E-05
  1.9595001E-02   -3.9642331E-05
  1.9630000E-02   -4.1575317E-05
  1.9664999E-02   -4.3565433E-05
  1.9700000E-02   -4.5611443E-05
  1.9734999E-02   -4.7711641E-05
  1.9770000E-02   -4.9864819E-05
  1.9804999E-02   -5.2070143E-05
  1.9840000E-02   -5.4326130E-05
  1.9874999E-02   -5.6630324E-05
  1.9910000E-02   -5.8980102E-05
  1.9944999E-02   -6.1373357E-05
  1.9980000E-02   -6.3807987E-05
  2.0014999E-02   -6.6281107E-05
  2.0050000E-02   -6.8789006E-05
  2.0085000E-02   -7.1328068E-05
  2.0120000E-02   -7.3895164E-05
  2.0155000E-02   -7.6486838E-05
  2.0190001E-02   -7.9098550E-05
  2.0225000E-02   -8.1725404E-05
  2.0260001E-02   -8.4363091E-05
  2.0295000E-02   -8.7007269E-05
  2.0330001E-02   -8.9652727E-05
  2.0365000E-02   -9.2293754E-05
  2.0400001E-02   -9.4924893E-05
  2.0435000E-02   -9.7540877E-05
  2.0470001E-02   -1.0013591E-04
  2.0505000E-02   -1.0270360E-04
  2.0540001E-02   -1.0523769E-04
  2.0575000E-02   -1.0773208E-04
  2.0609999E-02   -1.1018039E-04
  2.0645000E-02   -1.1257588E-04
  2.0679999E-02   -1.1491192E-04
  2.0715000E-02   -1.1718192E-04
  2.0749999E-02   -1.1937912E-04
  2.0785000E-02   -1.2149671E-04
  2.0819999E-02   -1.2352783E-04
  2.0855000E-02   -1.2546589E-04
  2.0889999E-02   -1.2730449E-04
  2.0925000E-02   -1.2903682E-04
  2.0959999E-02   -1.3065597E-04
  2.0995000E-02   -1.3215591E-04
  2.1029999E-02   -1.3353110E-04
  2.1065000E-02   -1.3477527E-04
  2.1100000E-02   -1.3588203E-04
  2.1135001E-02   -1.3684607E-04
  2.1170000E-02   -1.3766292E-04
  2.1205001E-02   -1.3832764E-04
  2.1240000E-02   -1.3883501E-04
  2.1275001E-02   -1.3918077E-04
  2.1310000E-02   -1.3936176E-04
  2.1345001E-02   -1.3937462E-04
  2.1380000E-02   -1.3921583E-04
  2.1415001E-02   -1.3888309E-04
  2.1450000E-02   -1.3837514E-04
  2.1485001E-02   -1.3769005E-04
  2.1520000E-02   -1.3682616E-04
  2.1555001E-02   -1.3578363E-04
  2.1590000E-02   -1.3456323E-04
  2.1624999E-02   -1.3316514E-04
  2.1660000E-02   -1.3159032E-04
  2.1694999E-02   -1.2984109E-04
  2.1730000E-02   -1.2791992E-04
  2.1764999E-02   -1.2582961E-04
  2.1800000E-02   -1.2357399E-04
  2.1834999E-02   -1.2115768E-04
  2.1870000E-02   -1.1858529E-04
  2.1904999E-02   -1.1586164E-04
  2.1940000E-02   -1.1299303E-04
  2.1974999E-02   -1.0998700E-04
  2.2010000E-02   -1.0685012E-04
  2.2045000E-02   -1.0358857E-04
  2.2080000E-02   -1.0021125E-04
  2.2115000E-02   -9.6728290E-05
  2.2150001E-02   -9.3147530E-05
  2.2185000E-02   -8.9476707E-05
  2.2220001E-02   -8.5726875E-05
  2.2255000E-02   -8.1909748E-05
  2.2290001E-02   -7.8034631E-05
  2.2325000E-02   -7.4110510E-05
  2.2360001E-02   -7.0148781E-05
  2.2395000E-02   -6.6162247E-05
  2.2430001E-02   -6.2162013E-05
  2.2465000E-02   -5.8157395E-05
  2.2500001E-02   -5.4159329E-05
  2.2535000E-02   -5.0180846E-05
  2.2569999E-02   -4.6233290E-05
  2.2605000E-02   -4.2326268E-05
  2.2639999E-02   -3.8470760E-05
  2.2675000E-02   -3.4678291E-05
  2.2709999E-02   -3.0958727E-05
  2.2745000E-02   -2.7321688E-05
  2.2779999E-02   -2.3777253E-05
  2.2815000E-02   -2.0334850E-05
  2.2849999E-02   -1.7003249E-05
  2.2885000E-02   -1.3790523E-05
  2.2919999E-02   -1.0704085E-05
  2.2955000E-02   -7.7515433E-06
  2.2990000E-02   -4.9398445E-06
  2.3025000E-02   -2.2743138E-06
  2.3060000E-02    2.3991919E-07
  2.3095001E-02    2.5978227E-06
  2.3130000E-02    4.7958415E-06
  2.3165001E-02    6.8310706E-06
  2.3200000E-02    8.7008293E-06
  2.3235001E-02    1.0403761E-05
  2.3270000E-02    1.1939095E-05
  2.3305001E-02    1.3306325E-05
  2.3340000E-02    1.4506655E-05
  2.3375001E-02    1.5542102E-05
  2.3410000E-02    1.6414220E-05
  2.3445001E-02    1.7125574E-05
  2.3480000E-02    1.7680199E-05
  2.3514999E-02    1.8082634E-05
  2.3550000E-02    1.8338285E-05
  2.3584999E-02    1.8452933E-05
  2.3620000E-02    1.8432022E-05
  2.3654999E-02    1.8282246E-05
  2.3690000E-02    1.8011768E-05
  2.3724999E-02    1.7628407E-05
  2.3760000E-02    1.7139822E-05
  2.3794999E-02    1.6554435E-05
  2.3830000E-02    1.5881253E-05
  2.3864999E-02    1.5129940E-05
  2.3900000E-02    1.4310067E-05
  2.3934999E-02    1.3430318E-05
  2.3970000E-02    1.2500210E-05
  2.4005000E-02    1.1530448E-05
  2.4040001E-02    1.0530496E-05
  2.4075000E-02    9.5088726E-06
  2.4110001E-02    8.4751764E-06
  2.4145000E-02    7.4391551E-06
  2.4180001E-02    6.4094725E-06
  2.4215000E-02    5.3944545E-06
  2.4250001E-02    4.4024887E-06
  2.4285000E-02    3.4418069E-06
  2.4320001E-02    2.5199881E-06
  2.4355000E-02    1.6434260E-06
  2.4390001E-02    8.1831956E-07
  2.4425000E-02    5.1234771E-08
  2.4460001E-02   -6.5248946E-07
  2.4495000E-02   -1.2888773E-06
  2.4529999E-02   -1.8538914E-06
  2.4565000E-02   -2.3440089E-06
  2.4599999E-02   -2.7568144E-06
  2.4635000E-02   -3.0900621E-06
  2.4669999E-02   -3.3421363E-06
  2.4705000E-02   -3.5128282E-06
  2.4739999E-02   -3.6023439E-06
  2.4775000E-02   -3.6110152E-06
  2.4809999E-02   -3.5399746E-06
  2.4845000E-02   -3.3910794E-06
  2.4879999E-02   -3.1671225E-06
  2.4915000E-02   -2.8718764E-06
  2.4950000E-02   -2.5089143E-06
  2.4985000E-02   -2.0815464E-06
  2.5020000E-02   -1.5942168E-06
  2.5055001E-02   -1.0527287E-06
  2.5090000E-02   -4.6307747E-07
  2.5125001E-02    1.6967546E-07
  2.5160000E-02    8.4084030E-07
  2.5195001E-02    1.5437907E-06
  2.5230000E-02    2.2702754E-06
  2.5265001E-02    3.0139608E-06
  2.5300000E-02    3.7702707E-06
  2.5335001E-02    4.5325969E-06
  2.5370000E-02    5.2927135E-06
  2.5405001E-02    6.0441394E-06
  2.5440000E-02    6.7817487E-06
  2.5474999E-02    7.4995696E-06
  2.5510000E-02    8.1912476E-06
  2.5544999E-02    8.8513725E-06
  2.5580000E-02    9.4750885E-06
  2.5614999E-02    1.0057264E-05
  2.5650000E-02    1.0593144E-05
  2.5684999E-02    1.1079256E-05
  2.5720000E-02    1.1512549E-05
  2.5754999E-02    1.1889430E-05
  2.5790000E-02    1.2206979E-05
  2.5824999E-02    1.2463849E-05
  2.5860000E-02    1.2659018E-05
  2.5895000E-02    1.2791148E-05
  2.5930000E-02    1.2859680E-05
  2.5965000E-02    1.2865235E-05
  2.6000001E-02    1.2808747E-05
  2.6035000E-02    1.2691247E-05
  2.6070001E-02    1.2514517E-05
  2.6105000E-02    1.2281047E-05
  2.6140001E-02    1.1993423E-05
  2.6175000E-02    1.1654823E-05
  2.6210001E-02    1.1269351E-05
  2.6245000E-02    1.0840704E-05
  2.6280001E-02    1.0372195E-05
  2.6315000E-02    9.8686651E-06
  2.6350001E-02    9.3358176E-06
  2.6385000E-02    8.7784592E-06
  2.6419999E-02    8.2015031E-06
  2.6455000E-02    7.6103579E-06
  2.6489999E-02    7.0096962E-06
  2.6525000E-02    6.4046285E-06
  2.6559999E-02    5.8014621E-06
  2.6595000E-02    5.2054484E-06
  2.6629999E-02    4.6207820E-06
  2.6665000E-02    4.0524028E-06
  2.6699999E-02    3.5050714E-06
  2.6735000E-02    2.9828886E-06
  2.6769999E-02    2.4904296E-06
  2.6805000E-02    2.0317545E-06
  2.6839999E-02    1.6097641E-06
  2.6875000E-02    1.2274252E-06
  2.6910000E-02    8.8723516E-07
  2.6945001E-02    5.9107145E-07
  2.6980000E-02    3.4158703E-07