 -4.8000002E-03    1.0000000E-24
 -4.7650002E-03    1.0000002E-24
 -4.7300002E-03    1.0000001E-24
 -4.6950001E-03    1.0000002E-24
 -4.6600001E-03    1.0000002E-24
 -4.6250001E-03    1.0000000E-24
 -4.5900000E-03    1.0000000E-24
 -4.5550000E-03    1.0000001E-24
 -4.5200000E-03    1.0000001E-24
 -4.4849999E-03    9.9999972E-25
 -4.4499999E-03    1.0000000E-24
 -4.4149999E-03    1.0000005E-24
 -4.3799998E-03    1.0000006E-24
 -4.3449998E-03    9.9999992E-25
 -4.3100002E-03    9.9999972E-25
 -4.2750002E-03    1.0000006E-24
 -4.2400002E-03    1.0000005E-24
 -4.2050001E-03    9.9999963E-25
 -4.1700001E-03    9.9999963E-25
 -4.1350001E-03    1.0000004E-24
 -4.1000000E-03    1.0000007E-24
 -4.0650000E-03    1.0000002E-24
 -4.0300000E-03    9.9999982E-25
 -3.9949999E-03    9.9999963E-25
 -3.9599999E-03    1.0000000E-24
 -3.9249999E-03    1.0000005E-24
 -3.8900001E-03    1.0000000E-24
 -3.8550000E-03    9.9999963E-25
 -3.8200000E-03    1.0000005E-24
 -3.7849999E-03    1.0000008E-24
 -3.7499999E-03    9.9999982E-25
 -3.7150001E-03    9.9999913E-25
 -3.6800001E-03    1.0000002E-24
 -3.6450000E-03    1.0000008E-24
 -3.6100000E-03    1.0000000E-24
 -3.5750000E-03    9.9999972E-25
 -3.5399999E-03    1.0000005E-24
 -3.5049999E-03    1.0000007E-24
 -3.4700001E-03    1.0000001E-24
 -3.4350001E-03    9.9999953E-25
 -3.4000000E-03    9.9999963E-25
 -3.3650000E-03    1.0000001E-24
 -3.3300000E-03    1.0000001E-24
 -3.2949999E-03    1.0000003E-24
 -3.2599999E-03    1.0000003E-24
 -3.2250001E-03    9.9999992E-25
 -3.1900001E-03    1.0000001E-24
 -3.1550000E-03    1.0000007E-24
 -3.1200000E-03    9.9999992E-25
 -3.0850000E-03    9.9999933E-25
 -3.0499999E-03    1.0000004E-24
 -3.0149999E-03    1.0000013E-24
 -2.9800001E-03    1.0000002E-24
 -2.9450001E-03    9.9999923E-25
 -2.9100000E-03    1.0000000E-24
 -2.8750000E-03    1.0000002E-24
 -2.8400000E-03    9.9999923E-25
 -2.8049999E-03    9.9999923E-25
 -2.7699999E-03    1.0000011E-24
 -2.7350001E-03    1.0000012E-24
 -2.7000001E-03    9.9999972E-25
 -2.6650000E-03    9.9999972E-25
 -2.6300000E-03    1.0000003E-24
 -2.5950000E-03    9.9999972E-25
 -2.5599999E-03    9.9999972E-25
 -2.5249999E-03    1.0000009E-24
 -2.4900001E-03    1.0000008E-24
 -2.4550001E-03    9.9999972E-25
 -2.4200000E-03    1.0000003E-24
 -2.3850000E-03    1.0000011E-24
 -2.3500000E-03    9.9999943E-25
 -2.3149999E-03    9.9999844E-25
 -2.2799999E-03    1.0000006E-24
 -2.2450001E-03    1.0000013E-24
 -2.2100001E-03    9.9999903E-25
 -2.1750000E-03    9.9999884E-25
 -2.1400000E-03    1.0000010E-24
 -2.1050000E-03    1.0000007E-24
 -2.0699999E-03    9.9999893E-25
 -2.0349999E-03    1.0000000E-24
 -2.0000001E-03    1.0000014E-24
 -1.9650001E-03    1.0000006E-24
 -1.9300000E-03    9.9999963E-25
 -1.8950000E-03    1.0000007E-24
 -1.8600000E-03    1.0000006E-24
 -1.8250000E-03    9.9999913E-25
 -1.7900000E-03    9.9999933E-25
 -1.7550000E-03    1.0000008E-24
 -1.7199999E-03    1.0000010E-24
 -1.6850000E-03    9.9999982E-25
 -1.6500000E-03    9.9999943E-25
 -1.6150000E-03    9.9999943E-25
 -1.5800000E-03    9.9999943E-25
 -1.5450000E-03    9.9999982E-25
 -1.5100000E-03    1.0000009E-24
 -1.4750001E-03    1.0000008E-24
 -1.4400000E-03    9.9999982E-25
 -1.4050000E-03    9.9999992E-25
 -1.3700000E-03    1.0000003E-24
 -1.3350000E-03    9.9999933E-25
 -1.3000000E-03    9.9999893E-25
 -1.2650000E-03    1.0000012E-24
 -1.2300001E-03    1.0000022E-24
 -1.1950000E-03    1.0000000E-24
 -1.1600000E-03    9.9999864E-25
 -1.1250000E-03    1.0000003E-24
 -1.0900000E-03    1.0000013E-24
 -1.0550000E-03    9.9999943E-25
 -1.0200000E-03    9.9999844E-25
 -9.8500005E-04    1.0000009E-24
 -9.5000002E-04    1.0000019E-24
 -9.1499998E-04    9.9999963E-25
 -8.8000001E-04    9.9999864E-25
 -8.4499997E-04    1.0000004E-24
 -8.1000000E-04    1.0000011E-24
 -7.7500002E-04    1.0000002E-24
 -7.3999999E-04    1.0000005E-24
 -7.0500001E-04    1.0000010E-24
 -6.6999998E-04    1.0000004E-24
 -6.3500000E-04    9.9999972E-25
 -6.0000003E-04    9.9999972E-25
 -5.6499999E-04    9.9999933E-25
 -5.3000002E-04    9.9999913E-25
 -4.9499999E-04    1.0000004E-24
 -4.6000001E-04    1.0000012E-24
 -4.2500001E-04    9.9999992E-25
 -3.9000000E-04    9.9999923E-25
 -3.5500000E-04    1.0000010E-24
 -3.1999999E-04    1.0000014E-24
 -2.8499999E-04    9.9999903E-25
 -2.5000001E-04    9.9999893E-25
 -2.1499999E-04    1.0000016E-24
 -1.8000000E-04    1.0000014E-24
 -1.4500000E-04    9.9999864E-25
 -1.1000000E-04    9.9999893E-25
 -7.5000004E-05    1.0000006E-24
 -3.9999999E-05    1.0000002E-24
 -4.9999999E-06    1.0000000E-24
  2.9999999E-05    1.0000008E-24
  6.5000000E-05    9.9999982E-25
  9.9999997E-05    9.9999953E-25
  1.3499999E-04    1.0000014E-24
  1.7000000E-04    1.0000016E-24
  2.0500000E-04    9.9999913E-25
  2.3999999E-04    9.9999903E-25
  2.7500000E-04    1.0000009E-24
  3.1000000E-04    1.0000003E-24
  3.4500001E-04    9.9999864E-25
  3.8000001E-04    9.9999953E-25
  4.1499999E-04    1.0000011E-24
  4.4999999E-04    1.0000007E-24
  4.8500000E-04    9.9999953E-25
  5.2000000E-04    9.9999943E-25
  5.5499998E-04    1.0000008E-24
  5.9000001E-04    1.0000015E-24
  6.2499999E-04    1.0000001E-24
  6.6000002E-04    9.9999884E-25
  6.9500000E-04    1.0000001E-24
  7.3000003E-04    1.0000014E-24
  7.6500000E-04    1.0000008E-24
  7.9999998E-04    9.9999963E-25
  8.3500001E-04    9.9999953E-25
  8.6999999E-04    9.9999982E-25
  9.0500002E-04    1.0000003E-24
  9.4000000E-04    1.0000005E-24
  9.7499997E-04    9.9999893E-25
  1.0100000E-03    9.9999864E-25
  1.0450000E-03    1.0000011E-24
  1.0800000E-03    1.0000016E-24
  1.1150000E-03    9.9999893E-25
  1.1500000E-03    9.9999893E-25
  1.1849999E-03    1.0000011E-24
  1.2200000E-03    1.0000008E-24
  1.2550000E-03    9.9999982E-25
  1.2900000E-03    1.0000005E-24
  1.3250000E-03    1.0000009E-24
  1.3600000E-03    1.0000001E-24
  1.3950000E-03    9.9999992E-25
  1.4299999E-03    9.9999982E-25
  1.4650000E-03    9.9999982E-25
  1.5000000E-03    1.0000001E-24
  1.5350000E-03    1.0000001E-24
  1.5700000E-03    1.0000003E-24
  1.6050000E-03    1.0000004E-24
  1.6400000E-03    9.9999963E-25
  1.6749999E-03    9.9999992E-25
  1.7100000E-03    1.0000002E-24
  1.7450000E-03    9.9999913E-25
  1.7800000E-03    9.9999903E-25
  1.8150000E-03    1.0000006E-24
  1.8500000E-03    1.0000005E-24
  1.8850000E-03    9.9999943E-25
  1.9200000E-03    1.0000003E-24
  1.9550000E-03    1.0000015E-24
  1.9900000E-03    1.0000008E-24
  2.0250001E-03    9.9999992E-25
  2.0600001E-03    1.0000004E-24
  2.0949999E-03    9.9999992E-25
  2.1299999E-03    9.9999933E-25
  2.1650000E-03    9.9999972E-25
  2.2000000E-03    1.0000004E-24
  2.2350000E-03    1.0000008E-24
  2.2700001E-03    1.0000001E-24
  2.3050001E-03    9.9999933E-25
  2.3399999E-03    9.9999933E-25
  2.3749999E-03    9.9999963E-25
  2.4100000E-03    1.0000005E-24
  2.4450000E-03    1.0000012E-24
  2.4800000E-03    1.0000004E-24
  2.5150001E-03    9.9999933E-25
  2.5500001E-03    1.0000000E-24
  2.5849999E-03    1.0000010E-24
  2.6199999E-03    1.0000000E-24
  2.6550000E-03    9.9999972E-25
  2.6900000E-03    1.0000014E-24
  2.7250000E-03    1.0000013E-24
  2.7600001E-03    9.9999884E-25
  2.7950001E-03    9.9999884E-25
  2.8299999E-03    1.0000006E-24
  2.8649999E-03    1.0000000E-24
  2.9000000E-03    9.9999884E-25
  2.9350000E-03    1.0000004E-24
  2.9700000E-03    1.0000015E-24
  3.0050001E-03    9.9999943E-25
  3.0400001E-03    9.9999864E-25
  3.0749999E-03    1.0000006E-24
  3.1099999E-03    1.0000004E-24
  3.1450000E-03    9.9999943E-25
  3.1800000E-03    1.0000035E-24
  3.2150000E-03    1.0000014E-24
  3.2500001E-03    9.9999085E-25
  3.2850001E-03    1.0000004E-24
  3.3199999E-03    1.0000191E-24
  3.3549999E-03    9.9999627E-25
  3.3900000E-03    9.9996432E-25
  3.4250000E-03    1.0000160E-24
  3.4600000E-03    1.0000568E-24
  3.4950001E-03    9.9997201E-25
  3.5300001E-03    9.9991729E-25
  3.5649999E-03    1.0000568E-24
  3.5999999E-03    1.0001104E-24
  3.6350000E-03    9.9991995E-25
  3.6700000E-03    9.9988130E-25
  3.7050000E-03    1.0001288E-24
  3.7400001E-03    1.0001305E-24
  3.7750001E-03    9.9981040E-25
  3.8099999E-03    9.9983199E-25
  3.8449999E-03    1.0002511E-24
  3.8800000E-03    1.0000316E-24
  3.9149998E-03    9.9990585E-25
  3.9499998E-03    1.0004249E-24
  3.9849998E-03    1.0000404E-24
  4.0199999E-03    9.9917694E-25
  4.0549999E-03    1.0006104E-24
  4.0899999E-03    1.0018705E-24
  4.1250000E-03    9.9908326E-25
  4.1600000E-03    9.9722096E-25
  4.1950000E-03    1.0012718E-24
  4.2300001E-03    1.0046379E-24
  4.2650001E-03    9.9899807E-25
  4.3000001E-03    9.9503167E-25
  4.3350002E-03    9.9960717E-25
  4.3700002E-03    1.0083407E-24
  4.4049998E-03    9.9997704E-25
  4.4399998E-03    9.8585219E-25
  4.4749998E-03    9.9204613E-25
  4.5099999E-03    1.0163656E-24
  4.5449999E-03    1.0070208E-24
  4.5799999E-03    9.8973635E-25
  4.6150000E-03    9.8263187E-25
  4.6500000E-03    1.0138410E-24
  4.6850001E-03    1.0547239E-24
  4.7200001E-03    1.0155323E-24
  4.7550001E-03    9.2741387E-25
  4.7900002E-03    9.7150508E-25
  4.8250002E-03    1.1128145E-24
  4.8600002E-03    1.1097024E-24
  4.8949998E-03    7.9188338E-25
  4.9299998E-03    6.9727642E-25
  4.9649999E-03    1.2299953E-24
  4.9999999E-03    1.6537636E-24
  5.0349999E-03    7.9285520E-25
  5.0700000E-03   -6.8147740E-26
  5.1050000E-03    1.2921395E-24
  5.1400000E-03    2.5950037E-24
  5.1750001E-03    9.6897136E-25
  5.2100001E-03   -9.8673296E-25
  5.2450001E-03    5.3076800E-25
  5.2800002E-03    3.6045287E-24
  5.3150002E-03    2.5514235E-24
  5.3500002E-03   -1.4504257E-24
  5.3849998E-03   -9.1233154E-25
  5.4199998E-03    4.4508846E-24
  5.4549999E-03    5.9661108E-24
  5.4899999E-03   -2.1840975E-24
  5.5249999E-03   -6.1448624E-24
  5.5600000E-03    4.0771239E-24
  5.5950000E-03    1.1438387E-23
  5.6300000E-03    1.7974389E-24
  5.6650001E-03   -1.5253036E-23
  5.7000001E-03   -1.1887331E-23
  5.7350001E-03    1.4500257E-23
  5.7700002E-03    2.2783403E-23
  5.8050002E-03   -1.5925117E-23
  5.8400002E-03   -3.9217245E-23
  5.8749998E-03    6.9494788E-24
  5.9099998E-03    5.4528710E-23
  5.9449999E-03    7.5513426E-24
  5.9799999E-03   -7.5790562E-23
  6.0149999E-03   -3.4350812E-23
  6.0500000E-03    8.3171890E-23
  6.0850000E-03    8.9271583E-23
  6.1200000E-03   -5.7534220E-23
  6.1550001E-03   -1.0355041E-22
  6.1900001E-03    7.6501717E-23
  6.2250001E-03    1.9980689E-22
  6.2600002E-03   -7.7590868E-24
  6.2950002E-03   -2.5428698E-22
  6.3299998E-03   -1.3719547E-22
  6.3649998E-03    2.2550315E-22
  6.3999998E-03    3.3498770E-22
  6.4349999E-03   -1.8839079E-22
  6.4699999E-03   -4.6082689E-22
  6.5049999E-03   -1.6013569E-23
  6.5400000E-03    5.7114145E-22
  6.5750000E-03    2.9432572E-22
  6.6100000E-03   -6.8617686E-22
  6.6450001E-03   -5.8667674E-22
  6.6800001E-03    6.9525374E-22
  6.7150001E-03    1.2942112E-21
  6.7500002E-03    2.1036661E-22
  6.7850002E-03   -1.7383441E-21
  6.8199998E-03   -1.4213296E-21
  6.8549998E-03    2.4980160E-21
  6.8899998E-03    3.4668864E-21
  6.9249999E-03   -2.0774213E-21
  6.9599999E-03   -5.4118009E-21
  6.9949999E-03    2.9814416E-22
  7.0300000E-03    6.8416456E-21
  7.0650000E-03    1.5884154E-21
  7.1000000E-03   -9.2495902E-21
  7.1350001E-03   -6.7871163E-21
  7.1700001E-03    1.0041480E-20
  7.2050001E-03    1.4540822E-20
  7.2400002E-03   -8.5612886E-21
  7.2750002E-03   -2.5589327E-20
  7.3099998E-03    1.1735928E-21
  7.3449998E-03    3.3808138E-20
  7.3799998E-03    9.1141022E-21
  7.4149999E-03   -4.8757754E-20
  7.4499999E-03   -3.0525436E-20
  7.4850000E-03    5.1415069E-20
  7.5200000E-03    6.4111422E-20
  7.5550000E-03   -3.6018093E-20
  7.5900001E-03   -1.0140608E-19
  7.6250001E-03    8.8599000E-21
  7.6600001E-03    1.3857400E-19
  7.6950002E-03    4.2152571E-20
  7.7300002E-03   -1.8759919E-19
  7.7650002E-03   -1.2432367E-19
  7.7999998E-03    2.1953355E-19
  7.8349998E-03    2.6297879E-19
  7.8699999E-03   -2.0032978E-19
  7.9049999E-03   -4.2872766E-19
  7.9399999E-03    1.3523401E-19
  7.9750000E-03    6.2659516E-19
  8.0100000E-03    6.6011902E-20
  8.0450000E-03   -8.0374798E-19
  8.0800001E-03   -3.3071027E-19
  8.1150001E-03    9.6784898E-19
  8.1500001E-03    7.7089816E-19
  8.1850002E-03   -9.7944926E-19
  8.2200002E-03   -1.3532858E-18
  8.2550002E-03    8.2213166E-19
  8.2900003E-03    2.1442381E-18
  8.3250003E-03   -3.9908936E-19
  8.3600003E-03   -2.9677406E-18
  8.3950004E-03   -4.8473203E-19
  8.4300004E-03    3.8477336E-18
  8.4650004E-03    1.8632651E-18
  8.5000005E-03   -4.5179629E-18
  8.5349996E-03   -4.0626831E-18
  8.5699996E-03    4.4060962E-18
  8.6049996E-03    6.9598861E-18
  8.6399997E-03   -3.0464071E-18
  8.6749997E-03   -1.0286622E-17
  8.7099997E-03    3.9831499E-19
  8.7449998E-03    1.3870151E-17
  8.7799998E-03    4.6803302E-18
  8.8149998E-03   -1.6652251E-17
  8.8499999E-03   -1.2046302E-17
  8.8849999E-03    1.7934348E-17
  8.9199999E-03    2.2855708E-17
  8.9550000E-03   -1.5329604E-17
  8.9900000E-03   -3.5962332E-17
  9.0250000E-03    7.1097820E-18
  9.0600001E-03    4.9896511E-17
  9.0950001E-03    8.6283268E-18
  9.1300001E-03   -6.1886106E-17
  9.1650002E-03   -3.3880937E-17
  9.2000002E-03    6.7220336E-17
  9.2350002E-03    6.8439316E-17
  9.2700003E-03   -6.1550086E-17
  9.3050003E-03   -1.1129502E-16
  9.3400003E-03    3.7829246E-17
  9.3750004E-03    1.5618834E-16
  9.4100004E-03    1.0020859E-17
  9.4450004E-03   -1.9456032E-16
  9.4799995E-03   -8.7036811E-17
  9.5149996E-03    2.1417558E-16
  9.5499996E-03    1.9350399E-16
  9.5849996E-03   -1.9758665E-16
  9.6199997E-03   -3.2337489E-16
  9.6549997E-03    1.2717227E-16
  9.6899997E-03    4.6138324E-16
  9.7249998E-03    2.1569696E-17
  9.7599998E-03   -5.7165714E-16
  9.7949998E-03   -2.5149025E-16
  9.8299999E-03    6.1961964E-16
  9.8649999E-03    5.5479816E-16
  9.8999999E-03   -5.6088785E-16
  9.9350000E-03   -9.1312598E-16
  9.9700000E-03    3.4699014E-16
  1.0005000E-02    1.2777540E-15
  1.0040000E-02    7.0208913E-17
  1.0075000E-02   -1.5634242E-15
  1.0110000E-02   -7.0026273E-16
  1.0145000E-02    1.6611791E-15
  1.0180000E-02    1.5206418E-15
  1.0215000E-02   -1.4477468E-15
  1.0250000E-02   -2.4415913E-15
  1.0285000E-02    8.0780330E-16
  1.0320000E-02    3.3032983E-15
  1.0355000E-02    3.1849476E-16
  1.0390000E-02   -3.9108341E-15
  1.0425000E-02   -1.9504905E-15
  1.0460000E-02    3.9733680E-15
  1.0495000E-02    3.9638529E-15
  1.0530000E-02   -3.2180978E-15
  1.0565000E-02   -6.1087173E-15
  1.0600000E-02    1.3979948E-15
  1.0635000E-02    7.9408585E-15
  1.0670000E-02    1.5814087E-15
  1.0705000E-02   -8.9141154E-15
  1.0740000E-02   -5.5772228E-15
  1.0775000E-02    8.4270164E-15
  1.0810000E-02    1.0197187E-14
  1.0845000E-02   -5.8967194E-15
  1.0880000E-02   -1.4693885E-14
  1.0915000E-02    9.5420856E-16
  1.0950000E-02    1.8005020E-14
  1.0985000E-02    6.3707906E-15
  1.1020000E-02   -1.8856822E-14
  1.1055000E-02   -1.5475378E-14
  1.1090000E-02    1.6010812E-14
  1.1125000E-02    2.5121573E-14
  1.1160000E-02   -8.5082300E-15
  1.1195000E-02   -3.3380220E-14
  1.1230000E-02   -3.9058760E-15
  1.1265000E-02    3.7856203E-14
  1.1300000E-02    2.0500085E-14
  1.1335000E-02   -3.6029898E-14
  1.1370000E-02   -3.9259269E-14
  1.1405000E-02    2.5828083E-14
  1.1440000E-02    5.6889545E-14
  1.1475000E-02   -6.2777758E-15
  1.1510000E-02   -6.9123005E-14
  1.1545000E-02   -2.1874065E-14
  1.1580000E-02    7.1261695E-14
  1.1615000E-02    5.5639829E-14
  1.1650000E-02   -5.9173688E-14
  1.1685000E-02   -8.9722236E-14
  1.1720000E-02    3.0410255E-14
  1.1755000E-02    1.1687872E-13
  1.1790000E-02    1.4629267E-14
  1.1825000E-02   -1.2893324E-13
  1.1860000E-02   -7.1836918E-14
  1.1895000E-02    1.1832481E-13
  1.1930000E-02    1.3310091E-13
  1.1965000E-02   -8.0130543E-14
  1.2000000E-02   -1.8712355E-13
  1.2035000E-02    1.3626293E-14
  1.2070000E-02    2.2068382E-13
  1.2105000E-02    7.6044660E-14
  1.2140000E-02   -2.2126970E-13
  1.2175000E-02   -1.7769206E-13
  1.2210000E-02    1.7972786E-13
  1.2245000E-02    2.7480657E-13
  1.2280000E-02   -9.3108511E-14
  1.2315000E-02   -3.4784803E-13
  1.2350000E-02   -3.3389673E-14
  1.2385000E-02    3.7757894E-13
  1.2420000E-02    1.8584145E-13
  1.2455000E-02   -3.4893627E-13
  1.2490000E-02   -3.4273870E-13
  1.2525000E-02    2.5473807E-13
  1.2560000E-02    4.7800999E-13
  1.2595000E-02   -9.8024663E-14
  1.2630000E-02   -5.6510412E-13
  1.2665000E-02   -1.0719144E-13
  1.2700000E-02    5.8167756E-13
  1.2735000E-02    3.3744042E-13
  1.2770000E-02   -5.1351767E-13
  1.2805000E-02   -5.6291186E-13
  1.2840000E-02    3.5713077E-13
  1.2875000E-02    7.5167574E-13
  1.2910000E-02   -1.2041388E-13
  1.2945000E-02   -8.7408330E-13
  1.2980000E-02   -1.7878175E-13
  1.3015000E-02    9.0586859E-13
  1.3050000E-02    5.1500541E-13
  1.3085000E-02   -8.2984579E-13
  1.3120000E-02   -8.5776557E-13
  1.3155000E-02    6.3599516E-13
  1.3190000E-02    1.1727463E-12
  1.3225000E-02   -3.2143380E-13
  1.3260000E-02   -1.4218319E-12
  1.3295000E-02   -1.0860809E-13
  1.3330000E-02    1.5624383E-12
  1.3365000E-02    6.3765882E-13
  1.3400000E-02   -1.5479224E-12
  1.3435000E-02   -1.2327279E-12
  1.3470000E-02    1.3309625E-12
  1.3505000E-02    1.8379044E-12
  1.3540000E-02   -8.7212448E-13
  1.3575000E-02   -2.3697719E-12
  1.3610000E-02    1.5425909E-13
  1.3645000E-02    2.7193115E-12
  1.3680000E-02    7.9983367E-13
  1.3715000E-02   -2.7634657E-12
  1.3750000E-02   -1.9107183E-12
  1.3785000E-02    2.3887363E-12
  1.3820000E-02    3.0343536E-12
  1.3855000E-02   -1.5244936E-12
  1.3890000E-02   -3.9702542E-12
  1.3925000E-02    1.7827279E-13
  1.3960000E-02    4.4892497E-12
  1.3995000E-02    1.5369434E-12
  1.4030000E-02   -4.3803455E-12
  1.4065000E-02   -3.3951754E-12
  1.4100000E-02    3.5093794E-12
  1.4135000E-02    5.0798458E-12
  1.4170000E-02   -1.8739721E-12
  1.4205000E-02   -6.2379130E-12
  1.4240000E-02   -3.6248104E-13
  1.4275000E-02    6.5588325E-12
  1.4310000E-02    2.8746502E-12
  1.4345000E-02   -5.8607381E-12
  1.4380000E-02   -5.2259959E-12
  1.4415000E-02    4.1573056E-12
  1.4450000E-02    6.9590531E-12
  1.4485000E-02   -1.6833161E-12
  1.4520000E-02   -7.7078630E-12
  1.4555000E-02   -1.1392659E-12
  1.4590000E-02    7.2998621E-12
  1.4625000E-02    3.7919971E-12
  1.4660000E-02   -5.8153595E-12
  1.4695000E-02   -5.7889969E-12
  1.4730000E-02    3.5806197E-12
  1.4765000E-02    6.8107000E-12
  1.4800000E-02   -1.0851101E-12
  1.4835000E-02   -6.7982247E-12
  1.4870000E-02   -1.1598158E-12
  1.4905000E-02    5.9709872E-12
  1.4940000E-02    2.7794217E-12
  1.4975000E-02   -4.7517905E-12
  1.5010000E-02   -3.6552970E-12
  1.5045000E-02    3.6199004E-12
  1.5080000E-02    3.9643961E-12
  1.5115000E-02   -2.9352380E-12
  1.5150000E-02   -4.1175917E-12
  1.5185000E-02    2.7878617E-12
  1.5220000E-02    4.6041383E-12
  1.5255000E-02   -2.9296062E-12
  1.5290000E-02   -5.7808133E-12
  1.5325000E-02    2.8309024E-12
  1.5360000E-02    7.6783840E-12
  1.5395000E-02   -1.8646083E-12
  1.5430000E-02   -9.9090016E-12
  1.5465000E-02   -4.4022715E-13
  1.5500000E-02    1.1722097E-11
  1.5535000E-02    4.1598192E-12
  1.5570000E-02   -1.2206639E-11
  1.5605000E-02   -8.8376971E-12
  1.5640000E-02    1.0593848E-11
  1.5675001E-02    1.3515785E-11
  1.5710000E-02   -6.5680577E-12
  1.5745001E-02   -1.6954337E-11
  1.5780000E-02    4.7098762E-13
  1.5814999E-02    1.7991433E-11
  1.5850000E-02    6.6945941E-12
  1.5884999E-02   -1.5925245E-11
  1.5920000E-02   -1.3479025E-11
  1.5954999E-02    1.0806348E-11
  1.5990000E-02    1.8396369E-11
  1.6024999E-02   -3.5015909E-12
  1.6060000E-02   -2.0405974E-11
  1.6094999E-02   -4.5376615E-12
  1.6130000E-02    1.9280423E-11
  1.6164999E-02    1.1760686E-11
  1.6200000E-02   -1.5666003E-11
  1.6235000E-02   -1.7038324E-11
  1.6270000E-02    1.0836995E-11
  1.6305000E-02    2.0060148E-11
  1.6340001E-02   -6.1860057E-12
  1.6375000E-02   -2.1424959E-11
  1.6410001E-02    2.6341986E-12
  1.6445000E-02    2.2376379E-11
  1.6480001E-02   -1.3456036E-13
  1.6515000E-02   -2.4127750E-11
  1.6550001E-02   -2.3538105E-12
  1.6585000E-02    2.7170212E-11
  1.6620001E-02    6.4525889E-12
  1.6655000E-02   -3.0764401E-11
  1.6690001E-02   -1.3551073E-11
  1.6725000E-02    3.2974651E-11
  1.6759999E-02    2.4020150E-11
  1.6795000E-02   -3.1097333E-11
  1.6829999E-02   -3.6420925E-11
  1.6865000E-02    2.2862157E-11
  1.6899999E-02    4.7639372E-11
  1.6935000E-02   -7.4722546E-12
  1.6969999E-02   -5.3518828E-11
  1.7005000E-02   -1.3443979E-11
  1.7039999E-02    5.0437356E-11
  1.7075000E-02    3.6210979E-11
  1.7109999E-02   -3.6162535E-11
  1.7145000E-02   -5.5283861E-11
  1.7180000E-02    1.1442306E-11
  1.7215000E-02    6.5122824E-11
  1.7250000E-02    2.0079272E-11
  1.7285001E-02   -6.1475255E-11
  1.7320000E-02   -5.1889822E-11
  1.7355001E-02    4.3777842E-11
  1.7390000E-02    7.7360750E-11
  1.7425001E-02   -1.4348818E-11
  1.7460000E-02   -9.0319127E-11
  1.7495001E-02   -2.0663441E-11
  1.7530000E-02    8.8171297E-11
  1.7565001E-02    5.4408478E-11
  1.7600000E-02   -7.1034012E-11
  1.7635001E-02   -7.9036763E-11
  1.7670000E-02    4.4292646E-11
  1.7704999E-02    9.0787176E-11
  1.7740000E-02   -1.3877537E-11
  1.7774999E-02   -8.7867616E-11
  1.7810000E-02   -1.2319395E-11
  1.7844999E-02    7.4290844E-11
  1.7880000E-02    3.0446683E-11
  1.7914999E-02   -5.3944533E-11
  1.7950000E-02   -3.6678334E-11
  1.7984999E-02    3.5437733E-11
  1.8020000E-02    3.5603080E-11
  1.8054999E-02   -2.0899563E-11
  1.8090000E-02   -2.9607025E-11
  1.8124999E-02    1.3576966E-11
  1.8160000E-02    2.6154100E-11
  1.8195000E-02   -8.0741932E-12
  1.8230001E-02   -2.4338394E-11
  1.8265000E-02    4.2800975E-12
  1.8300001E-02    2.8848663E-11
  1.8335000E-02    7.4527225E-12
  1.8370001E-02   -3.0104686E-11
  1.8405000E-02   -2.2836720E-11
  1.8440001E-02    2.9446594E-11
  1.8475000E-02    4.6846138E-11
  1.8510001E-02   -1.3812091E-11
  1.8545000E-02   -6.5107579E-11
  1.8580001E-02   -1.0222268E-11
  1.8615000E-02    7.7710546E-11
  1.8650001E-02    4.7155724E-11
  1.8685000E-02   -6.9619935E-11
  1.8719999E-02   -7.9845693E-11
  1.8755000E-02    5.1396169E-11
  1.8789999E-02    1.1400397E-10
  1.8825000E-02   -8.8420764E-12
  1.8859999E-02   -1.2263338E-10
  1.8895000E-02   -3.2472039E-11
  1.8929999E-02    1.1795025E-10
  1.8965000E-02    8.1227899E-11
  1.8999999E-02   -8.1790089E-11
  1.9035000E-02   -1.0591143E-10
  1.9069999E-02    4.3664548E-11
  1.9105000E-02    1.2448058E-10
  1.9140000E-02    1.3312176E-11
  1.9175000E-02   -1.0520046E-10
  1.9210000E-02   -5.0397634E-11
  1.9245001E-02    7.9485092E-11
  1.9280000E-02    8.8380067E-11
  1.9315001E-02   -2.3914603E-11
  1.9350000E-02   -8.3974216E-11
  1.9385001E-02   -1.0389869E-11
  1.9420000E-02    7.9058510E-11
  1.9455001E-02    5.5925847E-11
  1.9490000E-02   -3.3380795E-11
  1.9525001E-02   -6.3183569E-11
  1.9560000E-02   -3.1541540E-12
  1.9595001E-02    6.5152828E-11
  1.9630000E-02    5.1152613E-11
  1.9664999E-02   -2.2494520E-11
  1.9700000E-02   -5.2722202E-11
  1.9734999E-02   -1.1019449E-12
  1.9770000E-02    5.1398118E-11
  1.9804999E-02    4.5194272E-11
  1.9840000E-02   -2.6135886E-12
  1.9874999E-02   -3.9437564E-11
  1.9910000E-02   -1.6204631E-11
  1.9944999E-02    4.9758461E-11
  1.9980000E-02    5.6169253E-11
  2.0014999E-02   -1.4795597E-11
  2.0050000E-02   -5.1346507E-11
  2.0085000E-02   -1.0527900E-12
  2.0120000E-02    5.2185239E-11
  2.0155000E-02    3.3181406E-11
  2.0190001E-02   -1.6226007E-11
  2.0225000E-02   -2.6531461E-11
  2.0260001E-02    7.7611364E-12
  2.0295000E-02    3.3668721E-11
  2.0330001E-02    1.9392455E-11
  2.0365000E-02    3.4711379E-12
  2.0400001E-02    6.0582368E-12
  2.0435000E-02   -2.2752297E-13
  2.0470001E-02   -1.2099873E-11
  2.0505000E-02   -3.4327005E-12
  2.0540001E-02    4.2809354E-12
  2.0575000E-02    2.1881941E-12
  2.0609999E-02    1.7132497E-11
  2.0645000E-02    1.1771690E-11
  2.0679999E-02   -3.2344013E-11
  2.0715000E-02   -3.0424996E-11
  2.0749999E-02    5.1533042E-11
  2.0785000E-02    6.6237738E-11
  2.0819999E-02   -6.0184926E-11
  2.0855000E-02   -9.8425566E-11
  2.0889999E-02    5.1306865E-11
  2.0925000E-02    1.3760344E-10
  2.0959999E-02   -1.0197258E-12
  2.0995000E-02   -1.4266711E-10
  2.1029999E-02   -5.8033713E-11
  2.1065000E-02    1.1885119E-10
  2.1100000E-02    7.0345250E-11
  2.1135001E-02   -1.4274552E-10
  2.1170000E-02   -1.1632923E-10
  2.1205001E-02    9.8330497E-11
  2.1240000E-02    8.7556414E-11
  2.1275001E-02   -9.2852975E-11
  2.1310000E-02   -9.8665028E-11
  2.1345001E-02    4.0979248E-11
  2.1380000E-02    6.6868316E-11
  2.1415001E-02   -3.4404112E-11
  2.1450000E-02   -8.9285510E-11
  2.1485001E-02   -1.8008659E-11
  2.1520000E-02    7.6827919E-11
  2.1555001E-02    2.7651829E-11
  2.1590000E-02   -1.1171415E-10
  2.1624999E-02   -1.2500344E-10
  2.1660000E-02    3.3347620E-11
  2.1694999E-02    1.2553986E-10
  2.1730000E-02   -1.1194466E-11
  2.1764999E-02   -1.5950936E-10
  2.1800000E-02   -6.0041458E-11
  2.1834999E-02    1.0681918E-10
  2.1870000E-02    6.5219330E-11
  2.1904999E-02   -8.5089796E-11
  2.1940000E-02   -1.2143656E-10
  2.1974999E-02   -1.1620507E-11
  2.2010000E-02    1.0696258E-10
  2.2045000E-02    4.2811660E-11
  2.2080000E-02   -1.4406540E-10
  2.2115000E-02   -1.3716540E-10
  2.2150001E-02    9.3565461E-11
  2.2185000E-02    1.6917057E-10
  2.2220001E-02   -5.0721163E-11
  2.2255000E-02   -1.7036102E-10
  2.2290001E-02    1.6291491E-11
  2.2325000E-02    1.3720015E-10
  2.2360001E-02   -5.0870964E-11
  2.2395000E-02   -1.5815198E-10
  2.2430001E-02    8.7200268E-11
  2.2465000E-02    2.3950833E-10
  2.2500001E-02   -1.4048950E-11
  2.2535000E-02   -2.6135816E-10
  2.2569999E-02   -1.1618421E-10
  2.2605000E-02    1.7784318E-10
  2.2639999E-02    1.8829055E-10
  2.2675000E-02   -1.0618252E-10
  2.2709999E-02   -2.4218511E-10
  2.2745000E-02    4.5604711E-11
  2.2779999E-02    3.0804295E-10
  2.2815000E-02    1.2740772E-10
  2.2849999E-02   -1.7185246E-10
  2.2885000E-02   -1.5553249E-10
  2.2919999E-02    9.4080382E-11
  2.2955000E-02    2.4117500E-10
  2.2990000E-02    7.0396244E-11
  2.3025000E-02   -2.2436381E-10
  2.3060000E-02   -1.8898569E-10
  2.3095001E-02    1.2776892E-10
  2.3130000E-02    2.0628024E-10
  2.3165001E-02   -1.1741262E-11
  2.3200000E-02   -1.1145648E-10
  2.3235001E-02    2.1607216E-11
  2.3270000E-02    1.3790186E-10
  2.3305001E-02    7.5513110E-11
  2.3340000E-02   -3.1501461E-11
  2.3375001E-02    4.7229432E-11
  2.3410000E-02    1.8149868E-10
  2.3445001E-02    2.6596126E-11
  2.3480000E-02   -2.3817584E-10
  2.3514999E-02   -1.3126822E-10
  2.3550000E-02    1.7483964E-10
  2.3584999E-02    1.5350897E-10
  2.3620000E-02   -1.0973248E-10
  2.3654999E-02   -1.7359471E-10
  2.3690000E-02    1.4021876E-11
  2.3724999E-02    1.8640392E-10
  2.3760000E-02    1.4310250E-10
  2.3794999E-02   -8.8971039E-11
  2.3830000E-02   -2.2384314E-10
  2.3864999E-02   -5.7639886E-11
  2.3900000E-02    1.7137133E-10
  2.3934999E-02    1.1991114E-10
  2.3970000E-02   -1.5091965E-10
  2.4005000E-02   -2.8391128E-10
  2.4040001E-02   -8.3429923E-11
  2.4075000E-02    2.0304319E-10
  2.4110001E-02    1.4227464E-10
  2.4145000E-02   -1.9357266E-10
  2.4180001E-02   -2.8151953E-10
  2.4215000E-02   -7.1684825E-11
  2.4250001E-02    1.3004279E-11
  2.4285000E-02   -4.1305501E-11
  2.4320001E-02    1.2534652E-11
  2.4355000E-02    3.3211961E-11
  2.4390001E-02   -1.3186886E-10
  2.4425000E-02   -2.3796512E-10
  2.4460001E-02   -9.9846499E-11
  2.4495000E-02    7.2687911E-11
  2.4529999E-02   -5.9206508E-11
  2.4565000E-02   -4.2783485E-10
  2.4599999E-02   -4.1327677E-10
  2.4635000E-02    1.2951334E-10
  2.4669999E-02    2.9396083E-10
  2.4705000E-02   -2.5084171E-10
  2.4739999E-02   -4.7879084E-10
  2.4775000E-02   -2.9014798E-11
  2.4809999E-02    1.5787235E-10
  2.4845000E-02   -1.6822300E-10
  2.4879999E-02   -2.9374955E-10
  2.4915000E-02   -6.6730586E-11
  2.4950000E-02    6.0211010E-11
  2.4985000E-02   -1.0567049E-10
  2.5020000E-02   -2.9248831E-10
  2.5055001E-02   -1.4266124E-10
  2.5090000E-02    1.0101315E-10
  2.5125001E-02   -5.3251261E-11
  2.5160000E-02   -2.5390601E-10
  2.5195001E-02   -8.0862129E-11
  2.5230000E-02   -2.2193155E-11
  2.5265001E-02   -1.7116041E-10
  2.5300000E-02   -6.1062288E-12
  2.5335001E-02    1.0402804E-10
  2.5370000E-02   -2.4734367E-10
  2.5405001E-02   -3.0130021E-10
  2.5440000E-02    2.3286359E-10
  2.5474999E-02    4.8005733E-10
  2.5510000E-02    3.1135566E-11
  2.5544999E-02   -5.2393706E-10
  2.5580000E-02   -3.8336578E-10
  2.5614999E-02    4.0333401E-10
  2.5650000E-02    5.6176347E-10
  2.5684999E-02   -3.0930525E-10
  2.5720000E-02   -6.2376126E-10
  2.5754999E-02    1.6307770E-10
  2.5790000E-02    5.3879823E-10
  2.5824999E-02    1.4313656E-10
  2.5860000E-02    4.3367276E-12
  2.5895000E-02    1.1072492E-10
  2.5930000E-02    4.8132668E-11
  2.5965000E-02    9.7523087E-11
  2.6000001E-02    2.5486618E-10
  2.6035000E-02    2.0644091E-10
  2.6070001E-02   -1.8134142E-11
  2.6105000E-02   -2.0490011E-10
  2.6140001E-02    4.3243243E-12
  2.6175000E-02    4.7074761E-10
  2.6210001E-02    2.6915603E-10
  2.6245000E-02   -3.7754977E-10
  2.6280001E-02   -1.0426478E-10
  2.6315000E-02    6.6698941E-10
  2.6350001E-02    4.7218462E-10
  2.6385000E-02   -1.3139659E-10
  2.6419999E-02    2.3076888E-11
  2.6455000E-02    3.9091960E-10
  2.6489999E-02    2.6178032E-10
  2.6525000E-02    1.2151094E-11
  2.6559999E-02    2.8825182E-11
  2.6595000E-02    1.7644285E-10
  2.6629999E-02    1.4025503E-10
  2.6665000E-02   -7.3712376E-11
  2.6699999E-02    9.2059459E-12
  2.6735000E-02    3.0803721E-10
  2.6769999E-02    1.2770231E-10
  2.6805000E-02   -2.1629194E-10
  2.6839999E-02    8.9726455E-11
  2.6875000E-02    4.9465532E-10
  2.6910000E-02    2.2741271E-10
  2.6945001E-02   -9.7990373E-11
  2.6980000E-02    8.1206715E-11