 -4.8000002E-03    1.0000000E-24
 -4.7650002E-03    1.0000002E-24
 -4.7300002E-03    1.0000001E-24
 -4.6950001E-03    1.0000001E-24
 -4.6600001E-03    1.0000002E-24
 -4.6250001E-03    1.0000000E-24
 -4.5900000E-03    1.0000000E-24
 -4.5550000E-03    1.0000002E-24
 -4.5200000E-03    1.0000001E-24
 -4.4849999E-03    9.9999972E-25
 -4.4499999E-03    1.0000001E-24
 -4.4149999E-03    1.0000005E-24
 -4.3799998E-03    1.0000002E-24
 -4.3449998E-03    9.9999982E-25
 -4.3100002E-03    1.0000001E-24
 -4.2750002E-03    1.0000005E-24
 -4.2400002E-03    1.0000005E-24
 -4.2050001E-03    1.0000000E-24
 -4.1700001E-03    9.9999963E-25
 -4.1350001E-03    1.0000000E-24
 -4.1000000E-03    1.0000005E-24
 -4.0650000E-03    1.0000000E-24
 -4.0300000E-03    9.9999963E-25
 -3.9949999E-03    1.0000000E-24
 -3.9599999E-03    1.0000002E-24
 -3.9249999E-03    1.0000001E-24
 -3.8900001E-03    1.0000002E-24
 -3.8550000E-03    1.0000003E-24
 -3.8200000E-03    1.0000000E-24
 -3.7849999E-03    1.0000000E-24
 -3.7499999E-03    1.0000003E-24
 -3.7150001E-03    9.9999982E-25
 -3.6800001E-03    9.9999982E-25
 -3.6450000E-03    1.0000003E-24
 -3.6100000E-03    1.0000005E-24
 -3.5750000E-03    9.9999992E-25
 -3.5399999E-03    9.9999972E-25
 -3.5049999E-03    1.0000002E-24
 -3.4700001E-03    1.0000006E-24
 -3.4350001E-03    1.0000000E-24
 -3.4000000E-03    9.9999992E-25
 -3.3650000E-03    9.9999992E-25
 -3.3300000E-03    9.9999963E-25
 -3.2949999E-03    1.0000001E-24
 -3.2599999E-03    1.0000008E-24
 -3.2250001E-03    1.0000003E-24
 -3.1900001E-03    9.9999943E-25
 -3.1550000E-03    9.9999992E-25
 -3.1200000E-03    1.0000006E-24
 -3.0850000E-03    1.0000000E-24
 -3.0499999E-03    9.9999953E-25
 -3.0149999E-03    1.0000007E-24
 -2.9800001E-03    1.0000011E-24
 -2.9450001E-03    9.9999943E-25
 -2.9100000E-03    9.9999893E-25
 -2.8750000E-03    1.0000003E-24
 -2.8400000E-03    1.0000005E-24
 -2.8049999E-03    9.9999943E-25
 -2.7699999E-03    9.9999992E-25
 -2.7350001E-03    1.0000006E-24
 -2.7000001E-03    1.0000002E-24
 -2.6650000E-03    1.0000003E-24
 -2.6300000E-03    1.0000007E-24
 -2.5950000E-03    9.9999982E-25
 -2.5599999E-03    9.9999963E-25
 -2.5249999E-03    1.0000007E-24
 -2.4900001E-03    1.0000005E-24
 -2.4550001E-03    9.9999923E-25
 -2.4200000E-03    9.9999972E-25
 -2.3850000E-03    1.0000008E-24
 -2.3500000E-03    1.0000002E-24
 -2.3149999E-03    9.9999933E-25
 -2.2799999E-03    1.0000002E-24
 -2.2450001E-03    1.0000005E-24
 -2.2100001E-03    9.9999923E-25
 -2.1750000E-03    9.9999923E-25
 -2.1400000E-03    1.0000009E-24
 -2.1050000E-03    1.0000012E-24
 -2.0699999E-03    9.9999972E-25
 -2.0349999E-03    9.9999953E-25
 -2.0000001E-03    1.0000004E-24
 -1.9650001E-03    1.0000000E-24
 -1.9300000E-03    9.9999972E-25
 -1.8950000E-03    1.0000009E-24
 -1.8600000E-03    1.0000008E-24
 -1.8250000E-03    9.9999963E-25
 -1.7900000E-03    9.9999953E-25
 -1.7550000E-03    9.9999982E-25
 -1.7199999E-03    9.9999963E-25
 -1.6850000E-03    1.0000005E-24
 -1.6500000E-03    1.0000010E-24
 -1.6150000E-03    9.9999953E-25
 -1.5800000E-03    9.9999943E-25
 -1.5450000E-03    1.0000006E-24
 -1.5100000E-03    1.0000001E-24
 -1.4750001E-03    9.9999903E-25
 -1.4400000E-03    1.0000001E-24
 -1.4050000E-03    1.0000011E-24
 -1.3700000E-03    1.0000001E-24
 -1.3350000E-03    9.9999963E-25
 -1.3000000E-03    1.0000000E-24
 -1.2650000E-03    1.0000001E-24
 -1.2300001E-03    1.0000001E-24
 -1.1950000E-03    1.0000000E-24
 -1.1600000E-03    1.0000000E-24
 -1.1250000E-03    9.9999992E-25
 -1.0900000E-03    1.0000006E-24
 -1.0550000E-03    1.0000002E-24
 -1.0200000E-03    9.9999913E-25
 -9.8500005E-04    9.9999992E-25
 -9.5000002E-04    1.0000009E-24
 -9.1499998E-04    1.0000010E-24
 -8.8000001E-04    1.0000006E-24
 -8.4499997E-04    1.0000002E-24
 -8.1000000E-04    9.9999943E-25
 -7.7500002E-04    9.9999972E-25
 -7.3999999E-04    1.0000005E-24
 -7.0500001E-04    1.0000002E-24
 -6.6999998E-04    9.9999963E-25
 -6.3500000E-04    9.9999963E-25
 -6.0000003E-04    1.0000002E-24
 -5.6499999E-04    9.9999982E-25
 -5.3000002E-04    9.9999943E-25
 -4.9499999E-04    1.0000005E-24
 -4.6000001E-04    1.0000012E-24
 -4.2500001E-04    9.9999992E-25
 -3.9000000E-04    9.9999933E-25
 -3.5500000E-04    1.0000004E-24
 -3.1999999E-04    1.0000009E-24
 -2.8499999E-04    9.9999982E-25
 -2.5000001E-04    9.9999923E-25
 -2.1499999E-04    1.0000002E-24
 -1.8000000E-04    1.0000008E-24
 -1.4500000E-04    1.0000001E-24
 -1.1000000E-04    9.9999903E-25
 -7.5000004E-05    9.9999982E-25
 -3.9999999E-05    1.0000006E-24
 -4.9999999E-06    9.9999913E-25
  2.9999999E-05    9.9999943E-25
  6.5000000E-05    1.0000020E-24
  9.9999997E-05    1.0000014E-24
  1.3499999E-04    9.9999903E-25
  1.7000000E-04    9.9999972E-25
  2.0500000E-04    1.0000009E-24
  2.3999999E-04    9.9999982E-25
  2.7500000E-04    1.0000000E-24
  3.1000000E-04    1.0000009E-24
  3.4500001E-04    9.9999943E-25
  3.8000001E-04    9.9999874E-25
  4.1499999E-04    1.0000001E-24
  4.4999999E-04    1.0000000E-24
  4.8500000E-04    9.9999913E-25
  5.2000000E-04    1.0000003E-24
  5.5499998E-04    1.0000011E-24
  5.9000001E-04    1.0000010E-24
  6.2499999E-04    1.0000008E-24
  6.6000002E-04    1.0000003E-24
  6.9500000E-04    9.9999972E-25
  7.3000003E-04    1.0000001E-24
  7.6500000E-04    1.0000004E-24
  7.9999998E-04    1.0000002E-24
  8.3500001E-04    1.0000001E-24
  8.6999999E-04    1.0000000E-24
  9.0500002E-04    9.9999933E-25
  9.4000000E-04    9.9999893E-25
  9.7499997E-04    9.9999992E-25
  1.0100000E-03    1.0000006E-24
  1.0450000E-03    9.9999982E-25
  1.0800000E-03    9.9999992E-25
  1.1150000E-03    1.0000014E-24
  1.1500000E-03    1.0000012E-24
  1.1849999E-03    9.9999923E-25
  1.2200000E-03    9.9999933E-25
  1.2550000E-03    1.0000006E-24
  1.2900000E-03    9.9999992E-25
  1.3250000E-03    9.9999953E-25
  1.3600000E-03    1.0000005E-24
  1.3950000E-03    1.0000009E-24
  1.4299999E-03    1.0000009E-24
  1.4650000E-03    1.0000004E-24
  1.5000000E-03    9.9999913E-25
  1.5350000E-03    9.9999913E-25
  1.5700000E-03    1.0000008E-24
  1.6050000E-03    1.0000008E-24
  1.6400000E-03    9.9999884E-25
  1.6749999E-03    9.9999913E-25
  1.7100000E-03    1.0000011E-24
  1.7450000E-03    1.0000008E-24
  1.7800000E-03    9.9999963E-25
  1.8150000E-03    1.0000000E-24
  1.8500000E-03    9.9999992E-25
  1.8850000E-03    9.9999923E-25
  1.9200000E-03    9.9999992E-25
  1.9550000E-03    1.0000004E-24
  1.9900000E-03    9.9999963E-25
  2.0250001E-03    1.0000007E-24
  2.0600001E-03    1.0000018E-24
  2.0949999E-03    9.9999963E-25
  2.1299999E-03    9.9999834E-25
  2.1650000E-03    1.0000002E-24
  2.2000000E-03    1.0000012E-24
  2.2350000E-03    1.0000009E-24
  2.2700001E-03    1.0000001E-24
  2.3050001E-03    9.9999884E-25
  2.3399999E-03    9.9999933E-25
  2.3749999E-03    1.0000010E-24
  2.4100000E-03    1.0000002E-24
  2.4450000E-03    9.9999903E-25
  2.4800000E-03    1.0000010E-24
  2.5150001E-03    1.0000013E-24
  2.5500001E-03    9.9999923E-25
  2.5849999E-03    9.9999972E-25
  2.6199999E-03    1.0000011E-24
  2.6550000E-03    9.9999963E-25
  2.6900000E-03    1.0000002E-24
  2.7250000E-03    1.0000022E-24
  2.7600001E-03    1.0000005E-24
  2.7950001E-03    9.9999815E-25
  2.8299999E-03    1.0000000E-24
  2.8649999E-03    1.0000008E-24
  2.9000000E-03    9.9999834E-25
  2.9350000E-03    9.9999864E-25
  2.9700000E-03    1.0000020E-24
  3.0050001E-03    1.0000014E-24
  3.0400001E-03    9.9999874E-25
  3.0749999E-03    9.9999963E-25
  3.1099999E-03    1.0000008E-24
  3.1450000E-03    9.9999933E-25
  3.1800000E-03    9.9999923E-25
  3.2150000E-03    1.0000011E-24
  3.2500001E-03    1.0000014E-24
  3.2850001E-03    1.0000013E-24
  3.3199999E-03    1.0000013E-24
  3.3549999E-03    9.9999982E-25
  3.3900000E-03    9.9999874E-25
  3.4250000E-03    9.9999933E-25
  3.4600000E-03    9.9999933E-25
  3.4950001E-03    1.0000001E-24
  3.5300001E-03    1.0000013E-24
  3.5649999E-03    1.0000006E-24
  3.5999999E-03    9.9999913E-25
  3.6350000E-03    9.9999982E-25
  3.6700000E-03    1.0000004E-24
  3.7050000E-03    9.9999893E-25
  3.7400001E-03    9.9999864E-25
  3.7750001E-03    1.0000010E-24
  3.8099999E-03    1.0000018E-24
  3.8449999E-03    1.0000008E-24
  3.8800000E-03    9.9999992E-25
  3.9149998E-03    9.9999893E-25
  3.9499998E-03    9.9999874E-25
  3.9849998E-03    1.0000004E-24
  4.0199999E-03    1.0000010E-24
  4.0549999E-03    9.9999913E-25
  4.0899999E-03    9.9999943E-25
  4.1250000E-03    1.0000023E-24
  4.1600000E-03    9.9999982E-25
  4.1950000E-03    9.9999755E-25
  4.2300001E-03    1.0000015E-24
  4.2650001E-03    1.0000037E-24
  4.3000001E-03    9.9999785E-25
  4.3350002E-03    9.9999696E-25
  4.3700002E-03    1.0000044E-24
  4.4049998E-03    1.0000020E-24
  4.4399998E-03    9.9999282E-25
  4.4749998E-03    9.9999923E-25
  4.5099999E-03    1.0000044E-24
  4.5449999E-03    9.9999913E-25
  4.5799999E-03    9.9999430E-25
  4.6150000E-03    9.9999805E-25
  4.6500000E-03    1.0000025E-24
  4.6850001E-03    9.9999844E-25
  4.7200001E-03    9.9999558E-25
  4.7550001E-03    1.0000135E-24
  4.7900002E-03    1.0000417E-24
  4.8250002E-03    1.0000270E-24
  4.8600002E-03    9.9999292E-25
  4.8949998E-03    9.9990398E-25
  4.9299998E-03    1.0000010E-24
  4.9649999E-03    1.0002061E-24
  4.9999999E-03    9.9996393E-25
  5.0349999E-03    9.9948667E-25
  5.0700000E-03    9.9980241E-25
  5.1050000E-03    1.0006018E-24
  5.1400000E-03    1.0006171E-24
  5.1750001E-03    9.9914351E-25
  5.2100001E-03    9.9919420E-25
  5.2450001E-03    1.0008232E-24
  5.2800002E-03    1.0006803E-24
  5.3150002E-03    9.9793912E-25
  5.3500002E-03    9.9808614E-25
  5.3849998E-03    1.0016831E-24
  5.4199998E-03    1.0045886E-24
  5.4549999E-03    9.9712965E-25
  5.4899999E-03    9.9109358E-25
  5.5249999E-03    1.0012800E-24
  5.5600000E-03    1.0081594E-24
  5.5950000E-03    9.9661571E-25
  5.6300000E-03    9.8869377E-25
  5.6650001E-03    1.0042098E-24
  5.7000001E-03    1.0120047E-24
  5.7350001E-03    1.0103901E-24
  5.7700002E-03    9.7843503E-25
  5.8050002E-03    9.7825438E-25
  5.8400002E-03    1.0490954E-24
  5.8749998E-03    1.0821109E-24
  5.9099998E-03    9.5973005E-25
  5.9449999E-03    9.3979258E-25
  5.9799999E-03    1.0375280E-24
  6.0149999E-03    1.1246974E-24
  6.0500000E-03    1.0270152E-24
  6.0850000E-03    8.6501783E-25
  6.1200000E-03    9.5310244E-25
  6.1550001E-03    1.2173958E-24
  6.1900001E-03    1.0951964E-24
  6.2250001E-03    8.7198081E-25
  6.2600002E-03    8.0445649E-25
  6.2950002E-03    1.1221379E-24
  6.3299998E-03    1.2604263E-24
  6.3649998E-03    6.7113766E-25
  6.3999998E-03    5.9407774E-25
  6.4349999E-03    1.4462712E-24
  6.4699999E-03    1.8494440E-24
  6.5049999E-03    3.4756063E-25
  6.5400000E-03   -5.6205531E-25
  6.5750000E-03    1.4903586E-24
  6.6100000E-03    3.0670997E-24
  6.6450001E-03    2.3556296E-24
  6.6800001E-03    2.6065628E-25
  6.7150001E-03    2.0243186E-25
  6.7500002E-03    1.2916929E-24
  6.7850002E-03    1.8641667E-24
  6.8199998E-03   -8.9332078E-25
  6.8549998E-03   -7.4559804E-24
  6.8899998E-03    3.5167305E-24
  6.9249999E-03    1.1885819E-23
  6.9599999E-03    1.7858243E-24
  6.9949999E-03   -1.3067281E-23
  7.0300000E-03    6.9261809E-26
  7.0650000E-03    2.4678508E-23
  7.1000000E-03    7.1832136E-24
  7.1350001E-03   -2.8489222E-23
  7.1700001E-03   -2.5993263E-23
  7.2050001E-03    2.6449227E-23
  7.2400002E-03    2.8183646E-23
  7.2750002E-03   -3.6602240E-23
  7.3099998E-03   -3.5503218E-23
  7.3449998E-03    2.5652020E-23
  7.3799998E-03    6.9982186E-23
  7.4149999E-03   -1.6571910E-23
  7.4499999E-03   -6.1333197E-23
  7.4850000E-03    2.3029781E-23
  7.5200000E-03    9.3078456E-23
  7.5550000E-03   -1.3055033E-23
  7.5900001E-03   -2.1892281E-22
  7.6250001E-03   -8.2479649E-23
  7.6600001E-03    3.1723487E-22
  7.6950002E-03    1.2411351E-22
  7.7300002E-03   -4.2421764E-22
  7.7650002E-03   -2.3726465E-22
  7.7999998E-03    9.9212550E-23
  7.8349998E-03    3.3229961E-24
  7.8699999E-03   -1.2032841E-22
  7.9049999E-03   -1.8626763E-22
  7.9399999E-03   -1.0084477E-22
  7.9750000E-03    2.1486938E-22
  8.0100000E-03    3.1662539E-23
  8.0450000E-03   -2.3341299E-22
  8.0800001E-03   -5.8855526E-22
  8.1150001E-03    7.4183591E-22
  8.1500001E-03    1.0495210E-22
  8.1850002E-03   -1.7093736E-21
  8.2200002E-03   -7.4733350E-22
  8.2550002E-03    1.1342301E-21
  8.2900003E-03    6.1526789E-22
  8.3250003E-03   -1.7482584E-22
  8.3600003E-03    6.6477533E-22
  8.3950004E-03   -5.7419724E-22
  8.4300004E-03   -1.9256276E-21
  8.4650004E-03    2.4352597E-21
  8.5000005E-03    2.2404282E-21
  8.5349996E-03   -1.5941172E-21
  8.5699996E-03    1.2347994E-21
  8.6049996E-03   -7.1606545E-23
  8.6399997E-03    1.3435202E-21
  8.6749997E-03    6.5297589E-21
  8.7099997E-03    4.6531789E-21
  8.7449998E-03   -1.3921043E-20
  8.7799998E-03   -9.0090817E-21
  8.8149998E-03    1.4369500E-20
  8.8499999E-03    7.0690177E-21
  8.8849999E-03   -2.5076790E-20
  8.9199999E-03   -1.8358014E-20
  8.9550000E-03    3.4829852E-20
  8.9900000E-03    3.1155147E-20
  9.0250000E-03   -3.5019535E-20
  9.0600001E-03   -8.0468175E-20
  9.0950001E-03    6.6256008E-21
  9.1300001E-03    1.1268202E-19
  9.1650002E-03    4.2323313E-20
  9.2000002E-03   -1.2660998E-19
  9.2350002E-03   -1.2970555E-19
  9.2700003E-03    1.0086070E-19
  9.3050003E-03    2.4599403E-19
  9.3400003E-03   -1.1080336E-19
  9.3750004E-03   -4.4675141E-19
  9.4100004E-03   -1.4962064E-20
  9.4450004E-03    5.7922909E-19
  9.4799995E-03    2.1960547E-19
  9.5149996E-03   -6.8747549E-19
  9.5499996E-03   -5.1640384E-19
  9.5849996E-03    7.2784310E-19
  9.6199997E-03    9.7525659E-19
  9.6549997E-03   -7.4919056E-19
  9.6899997E-03   -1.8030846E-18
  9.7249998E-03    3.8162391E-19
  9.7599998E-03    2.5099584E-18
  9.7949998E-03    3.6823315E-19
  9.8299999E-03   -3.1126401E-18
  9.8649999E-03   -1.8130132E-18
  9.8999999E-03    3.2590908E-18
  9.9350000E-03    3.4255836E-18
  9.9700000E-03   -2.8740676E-18
  1.0005000E-02   -5.8016653E-18
  1.0040000E-02    1.4478163E-18
  1.0075000E-02    8.3094503E-18
  1.0110000E-02    1.0697831E-18
  1.0145000E-02   -1.0380245E-17
  1.0180000E-02   -5.3772001E-18
  1.0215000E-02    1.1149711E-17
  1.0250000E-02    1.1208834E-17
  1.0285000E-02   -1.0283408E-17
  1.0320000E-02   -1.8416309E-17
  1.0355000E-02    5.9520377E-18
  1.0390000E-02    2.5602550E-17
  1.0425000E-02    2.0311610E-18
  1.0460000E-02   -3.1846430E-17
  1.0495000E-02   -1.4043795E-17
  1.0530000E-02    3.4506977E-17
  1.0565000E-02    2.9930200E-17
  1.0600000E-02   -3.1447365E-17
  1.0635000E-02   -4.8945326E-17
  1.0670000E-02    1.9358660E-17
  1.0705000E-02    6.9146959E-17
  1.0740000E-02    3.2605570E-18
  1.0775000E-02   -8.3460307E-17
  1.0810000E-02   -3.6777764E-17
  1.0845000E-02    8.7974013E-17
  1.0880000E-02    7.8881379E-17
  1.0915000E-02   -7.5658280E-17
  1.0950000E-02   -1.2510417E-16
  1.0985000E-02    4.3706821E-17
  1.1020000E-02    1.6971102E-16
  1.1055000E-02    1.5646161E-17
  1.1090000E-02   -1.9964331E-16
  1.1125000E-02   -9.7678999E-17
  1.1160000E-02    2.0346708E-16
  1.1195000E-02    1.9929270E-16
  1.1230000E-02   -1.6528313E-16
  1.1265000E-02   -3.0609333E-16
  1.1300000E-02    7.5370659E-17
  1.1335000E-02    3.9785656E-16
  1.1370000E-02    7.2182447E-17
  1.1405000E-02   -4.4019114E-16
  1.1440000E-02   -2.6137105E-16
  1.1475000E-02    4.1469698E-16
  1.1510000E-02    4.7824195E-16
  1.1545000E-02   -2.9393597E-16
  1.1580000E-02   -6.8423221E-16
  1.1615000E-02    5.3042027E-17
  1.1650000E-02    8.3090443E-16
  1.1685000E-02    2.9614884E-16
  1.1720000E-02   -8.5318707E-16
  1.1755000E-02   -7.1274985E-16
  1.1790000E-02    7.0208978E-16
  1.1825000E-02    1.1389131E-15
  1.1860000E-02   -3.3378585E-16
  1.1895000E-02   -1.4873628E-15
  1.1930000E-02   -2.6052918E-16
  1.1965000E-02    1.6451374E-15
  1.2000000E-02    1.0407233E-15
  1.2035000E-02   -1.4976484E-15
  1.2070000E-02   -1.9083002E-15
  1.2105000E-02    9.4046894E-16
  1.2140000E-02    2.6940018E-15
  1.2175000E-02    5.8843769E-17
  1.2210000E-02   -3.1962227E-15
  1.2245000E-02   -1.4557277E-15
  1.2280000E-02    3.1912223E-15
  1.2315000E-02    3.1122940E-15
  1.2350000E-02   -2.4705641E-15
  1.2385000E-02   -4.7766822E-15
  1.2420000E-02    9.0691754E-16
  1.2455000E-02    6.0868927E-15
  1.2490000E-02    1.4897137E-15
  1.2525000E-02   -6.6454152E-15
  1.2560000E-02   -4.5652031E-15
  1.2595000E-02    6.0197225E-15
  1.2630000E-02    7.9439620E-15
  1.2665000E-02   -3.8943547E-15
  1.2700000E-02   -1.1065226E-14
  1.2735000E-02    1.1122597E-16
  1.2770000E-02    1.3222139E-14
  1.2805000E-02    5.2185840E-15
  1.2840000E-02   -1.3654718E-14
  1.2875000E-02   -1.1682152E-14
  1.2910000E-02    1.1616644E-14
  1.2945000E-02    1.8508386E-14
  1.2980000E-02   -6.5632996E-15
  1.3015000E-02   -2.4612611E-14
  1.3050000E-02   -1.7385243E-15
  1.3085000E-02    2.8624025E-14
  1.3120000E-02    1.3026004E-14
  1.3155000E-02   -2.9078773E-14
  1.3190000E-02   -2.6462937E-14
  1.3225000E-02    2.4594115E-14
  1.3260000E-02    4.0581928E-14
  1.3295000E-02   -1.4090679E-14
  1.3330000E-02   -5.3296479E-14
  1.3365000E-02   -2.9645965E-15
  1.3400000E-02    6.1930821E-14
  1.3435000E-02    2.6199444E-14
  1.3470000E-02   -6.3477821E-14
  1.3505000E-02   -5.4054204E-14
  1.3540000E-02    5.4972794E-14
  1.3575000E-02    8.3575928E-14
  1.3610000E-02   -3.4041746E-14
  1.3645000E-02   -1.1044137E-13
  1.3680000E-02   -5.5523428E-16
  1.3715000E-02    1.2897685E-13
  1.3750000E-02    4.8043580E-14
  1.3785000E-02   -1.3281588E-13
  1.3820000E-02   -1.0505330E-13
  1.3855000E-02    1.1575327E-13
  1.3890000E-02    1.6512883E-13
  1.3925000E-02   -7.3050798E-14
  1.3960000E-02   -2.1879356E-13
  1.3995000E-02    2.9743585E-15
  1.4030000E-02    2.5423356E-13
  1.4065000E-02    9.1684384E-14
  1.4100000E-02   -2.5882559E-13
  1.4135000E-02   -2.0241721E-13
  1.4170000E-02    2.2153469E-13
  1.4205000E-02    3.1488755E-13
  1.4240000E-02   -1.3563734E-13
  1.4275000E-02   -4.0982861E-13
  1.4310000E-02    1.5240030E-15
  1.4345000E-02    4.6547288E-13
  1.4380000E-02    1.7119944E-13
  1.4415000E-02   -4.6127593E-13
  1.4450000E-02   -3.6304168E-13
  1.4485000E-02    3.8246557E-13
  1.4520000E-02    5.4600974E-13
  1.4555000E-02   -2.2449363E-13
  1.4590000E-02   -6.8717363E-13
  1.4625000E-02   -3.6029728E-15
  1.4660000E-02    7.5434721E-13
  1.4695000E-02    2.7843683E-13
  1.4730000E-02   -7.2250501E-13
  1.4765000E-02   -5.6411760E-13
  1.4800000E-02    5.8003613E-13
  1.4835000E-02    8.1750600E-13
  1.4870000E-02   -3.3272679E-13
  1.4905000E-02   -9.9549297E-13
  1.4940000E-02    4.8019183E-15
  1.4975000E-02    1.0633634E-12
  1.5010000E-02    3.6418684E-13
  1.5045000E-02   -1.0019967E-12
  1.5080000E-02   -7.2617043E-13
  1.5115000E-02    8.1183053E-13
  1.5150000E-02    1.0331818E-12
  1.5185000E-02   -5.1288840E-13
  1.5220000E-02   -1.2465816E-12
  1.5255000E-02    1.3976286E-13
  1.5290000E-02    1.3430073E-12
  1.5325000E-02    2.6613336E-13
  1.5360000E-02   -1.3166621E-12
  1.5395000E-02   -6.6544556E-13
  1.5430000E-02    1.1763213E-12
  1.5465000E-02    1.0277055E-12
  1.5500000E-02   -9.3858450E-13
  1.5535000E-02   -1.3335709E-12
  1.5570000E-02    6.2021227E-13
  1.5605000E-02    1.5723000E-12
  1.5640000E-02   -2.3194752E-13
  1.5675001E-02   -1.7343655E-12
  1.5710000E-02   -2.2210985E-13
  1.5745001E-02    1.8032195E-12
  1.5780000E-02    7.3859690E-13
  1.5814999E-02   -1.7504671E-12
  1.5850000E-02   -1.3046061E-12
  1.5884999E-02    1.5374990E-12
  1.5920000E-02    1.8860128E-12
  1.5954999E-02   -1.1261609E-12
  1.5990000E-02   -2.4210471E-12
  1.6024999E-02    4.9512705E-13
  1.6060000E-02    2.8225473E-12
  1.6094999E-02    3.4120355E-13
  1.6130000E-02   -2.9931307E-12
  1.6164999E-02   -1.3208795E-12
  1.6200000E-02    2.8488839E-12
  1.6235000E-02    2.3341205E-12
  1.6270000E-02   -2.3471969E-12
  1.6305000E-02   -3.2398708E-12
  1.6340001E-02    1.5078329E-12
  1.6375000E-02    3.8967714E-12
  1.6410001E-02   -4.1724721E-13
  1.6445000E-02   -4.1985222E-12
  1.6480001E-02   -7.8748027E-13
  1.6515000E-02    4.1021531E-12
  1.6550001E-02    1.9519946E-12
  1.6585000E-02   -3.6374714E-12
  1.6620001E-02   -2.9444630E-12
  1.6655000E-02    2.8940446E-12
  1.6690001E-02    3.6898757E-12
  1.6725000E-02   -1.9862629E-12
  1.6759999E-02   -4.1846882E-12
  1.6795000E-02    1.0062309E-12
  1.6829999E-02    4.4809586E-12
  1.6865000E-02    1.6359992E-14
  1.6899999E-02   -4.6410944E-12
  1.6935000E-02   -1.1254688E-12
  1.6969999E-02    4.6815750E-12
  1.7005000E-02    2.4129054E-12
  1.7039999E-02   -4.5280494E-12
  1.7075000E-02   -3.9600220E-12
  1.7109999E-02    4.0021255E-12
  1.7145000E-02    5.7616668E-12
  1.7180000E-02   -2.8552967E-12
  1.7215000E-02   -7.6592075E-12
  1.7250000E-02    8.5100335E-13
  1.7285001E-02    9.3144182E-12
  1.7320000E-02    2.1243166E-12
  1.7355001E-02   -1.0247578E-11
  1.7390000E-02   -5.9592899E-12
  1.7425001E-02    9.9366782E-12
  1.7460000E-02    1.0255781E-11
  1.7495001E-02   -7.9661260E-12
  1.7530000E-02   -1.4340414E-11
  1.7565001E-02    4.1916709E-12
  1.7600000E-02    1.7373221E-11
  1.7635001E-02    1.1367266E-12
  1.7670000E-02   -1.8537318E-11
  1.7704999E-02   -7.3455287E-12
  1.7740000E-02    1.7263808E-11
  1.7774999E-02    1.3433064E-11
  1.7810000E-02   -1.3415755E-11
  1.7844999E-02   -1.8264175E-11
  1.7880000E-02    7.3841541E-12
  1.7914999E-02    2.0830549E-11
  1.7950000E-02   -4.9259960E-14
  1.7984999E-02   -2.0498884E-11
  1.8020000E-02   -7.3829467E-12
  1.8054999E-02    1.7196317E-11
  1.8090000E-02    1.3666296E-11
  1.8124999E-02   -1.1433372E-11
  1.8160000E-02   -1.7806501E-11
  1.8195000E-02    4.1774266E-12
  1.8230001E-02    1.9306457E-11
  1.8265000E-02    3.4319329E-12
  1.8300001E-02   -1.8215337E-11
  1.8335000E-02   -1.0360789E-11
  1.8370001E-02    1.5054060E-11
  1.8405000E-02    1.5938095E-11
  1.8440001E-02   -1.0558051E-11
  1.8475000E-02   -1.9901754E-11
  1.8510001E-02    5.4733956E-12
  1.8545000E-02    2.2412313E-11
  1.8580001E-02   -2.3436984E-13
  1.8615000E-02   -2.3745230E-11
  1.8650001E-02   -5.0084719E-12
  1.8685000E-02    2.4132755E-11
  1.8719999E-02    1.0404933E-11
  1.8755000E-02   -2.3423168E-11
  1.8789999E-02   -1.5962705E-11
  1.8825000E-02    2.1286155E-11
  1.8859999E-02    2.1532214E-11
  1.8895000E-02   -1.7146834E-11
  1.8929999E-02   -2.6391065E-11
  1.8965000E-02    1.0759521E-11
  1.8999999E-02    2.9577712E-11
  1.9035000E-02   -2.1505330E-12
  1.9069999E-02   -2.9605849E-11
  1.9105000E-02   -7.5124412E-12
  1.9140000E-02    2.5667678E-11
  1.9175000E-02    1.6731169E-11
  1.9210000E-02   -1.7315507E-11
  1.9245001E-02   -2.3171277E-11
  1.9280000E-02    5.7011939E-12
  1.9315001E-02    2.5347035E-11
  1.9350000E-02    7.7372718E-12
  1.9385001E-02   -2.1726947E-11
  1.9420000E-02   -1.9832259E-11
  1.9455001E-02    1.3124590E-11
  1.9490000E-02    2.8451616E-11
  1.9525001E-02   -7.1805799E-13
  1.9560000E-02   -3.1030262E-11
  1.9595001E-02   -1.1663502E-11
  1.9630000E-02    2.8316238E-11
  1.9664999E-02    2.2299027E-11
  1.9700000E-02   -2.0306897E-11
  1.9734999E-02   -2.7690343E-11
  1.9770000E-02    1.0792115E-11
  1.9804999E-02    2.8367093E-11
  1.9840000E-02   -1.0728710E-12
  1.9874999E-02   -2.3037424E-11
  1.9910000E-02   -3.9496405E-12
  1.9944999E-02    1.6449113E-11
  1.9980000E-02    5.8856917E-12
  2.0014999E-02   -8.3535800E-12
  2.0050000E-02   -2.2109181E-12
  2.0085000E-02    3.8864311E-12
  2.0120000E-02   -1.9368060E-12
  2.0155000E-02    7.8855820E-15
  2.0190001E-02    9.3404824E-12
  2.0225000E-02    2.3569835E-12
  2.0260001E-02   -1.2187692E-11
  2.0295000E-02   -4.0519055E-12
  2.0330001E-02    1.5609210E-11
  2.0365000E-02    9.9241613E-12
  2.0400001E-02   -1.2378483E-11
  2.0435000E-02   -1.0904473E-11
  2.0470001E-02    1.2391736E-11
  2.0505000E-02    1.6627911E-11
  2.0540001E-02   -5.4984910E-12
  2.0575000E-02   -1.5535241E-11
  2.0609999E-02    2.1416920E-12
  2.0645000E-02    1.6592845E-11
  2.0679999E-02    7.1454717E-12
  2.0715000E-02   -8.3265009E-12
  2.0749999E-02   -8.9602371E-12
  2.0785000E-02    6.2082249E-12
  2.0819999E-02    1.8748872E-11
  2.0855000E-02    8.7212997E-12
  2.0889999E-02   -1.4612334E-11
  2.0925000E-02   -1.5064882E-11
  2.0959999E-02    1.5377455E-11
  2.0995000E-02    2.9379547E-11
  2.1029999E-02   -1.2941949E-12
  2.1065000E-02   -2.5841480E-11
  2.1100000E-02    2.6803715E-12
  2.1135001E-02    3.3523281E-11
  2.1170000E-02    9.7438602E-12
  2.1205001E-02   -2.7889637E-11
  2.1240000E-02   -1.1465686E-11
  2.1275001E-02    3.4055855E-11
  2.1310000E-02    3.0015771E-11
  2.1345001E-02   -1.8217929E-11
  2.1380000E-02   -2.2530271E-11
  2.1415001E-02    2.4959123E-11
  2.1450000E-02    4.1181787E-11
  2.1485001E-02   -3.6175008E-12
  2.1520000E-02   -4.1260002E-11
  2.1555001E-02   -3.6136328E-12
  2.1590000E-02    5.4657376E-11
  2.1624999E-02    3.2547864E-11
  2.1660000E-02   -3.4857839E-11
  2.1694999E-02   -3.9468422E-11
  2.1730000E-02    2.8164554E-11
  2.1764999E-02    6.1759237E-11
  2.1800000E-02    1.3755036E-11
  2.1834999E-02   -4.9652331E-11
  2.1870000E-02   -3.5208485E-11
  2.1904999E-02    4.4458787E-11
  2.1940000E-02    7.5128209E-11
  2.1974999E-02   -7.1682434E-12
  2.2010000E-02   -7.3926545E-11
  2.2045000E-02   -1.0399026E-11
  2.2080000E-02    7.9071749E-11
  2.2115000E-02    4.7499272E-11
  2.2150001E-02   -5.3109055E-11
  2.2185000E-02   -4.5606838E-11
  2.2220001E-02    4.4711526E-11
  2.2255000E-02    5.3315317E-11
  2.2290001E-02   -1.5435035E-11
  2.2325000E-02   -3.6076423E-11
  2.2360001E-02    1.0025314E-11
  2.2395000E-02    5.8674635E-11
  2.2430001E-02    3.2758310E-11
  2.2465000E-02   -5.0654873E-11
  2.2500001E-02   -3.7749831E-11
  2.2535000E-02    5.0744974E-11
  2.2569999E-02    4.3503343E-11
  2.2605000E-02   -3.3431660E-11
  2.2639999E-02   -4.1913303E-11
  2.2675000E-02   -5.7257740E-12
  2.2709999E-02    2.9825541E-11
  2.2745000E-02    4.5054783E-11
  2.2779999E-02   -2.5217656E-11
  2.2815000E-02   -8.2206811E-11
  2.2849999E-02    2.1483674E-11
  2.2885000E-02    9.9281756E-11
  2.2919999E-02   -1.3197883E-11
  2.2955000E-02   -9.9140356E-11
  2.2990000E-02   -2.3014923E-11
  2.3025000E-02    5.5222903E-11
  2.3060000E-02    3.5054074E-11
  2.3095001E-02   -9.9873373E-12
  2.3130000E-02   -3.8389875E-11
  2.3165001E-02   -1.6917676E-11
  2.3200000E-02    2.2499301E-11
  2.3235001E-02   -2.4386966E-11
  2.3270000E-02   -6.6044711E-11
  2.3305001E-02   -4.5251914E-12
  2.3340000E-02    3.0437444E-11
  2.3375001E-02   -1.1745660E-11
  2.3410000E-02   -9.0816287E-12
  2.3445001E-02    3.7553471E-11
  2.3480000E-02    2.2098476E-11
  2.3514999E-02   -4.4803539E-11
  2.3550000E-02   -7.4314548E-11
  2.3584999E-02   -4.3176056E-11
  2.3620000E-02    6.3254194E-12
  2.3654999E-02    4.4377947E-12
  2.3690000E-02   -3.0683789E-11
  2.3724999E-02   -3.0361290E-11
  2.3760000E-02   -9.8318159E-12
  2.3794999E-02   -1.0603314E-11
  2.3830000E-02   -1.8846230E-11
  2.3864999E-02   -3.6479500E-11
  2.3900000E-02   -2.8402190E-11
  2.3934999E-02    3.5174079E-11
  2.3970000E-02    4.6184924E-11
  2.4005000E-02   -2.7233705E-11
  2.4040001E-02   -4.0937729E-11
  2.4075000E-02    2.6847798E-11
  2.4110001E-02    5.7927652E-11
  2.4145000E-02    1.6143479E-11
  2.4180001E-02   -4.0527134E-11
  2.4215000E-02   -6.3849426E-11
  2.4250001E-02   -2.4600552E-11
  2.4285000E-02    2.8213423E-11
  2.4320001E-02    3.7702658E-12
  2.4355000E-02   -6.4785850E-11
  2.4390001E-02   -6.0767058E-11
  2.4425000E-02    2.7399343E-11
  2.4460001E-02    5.7920044E-11
  2.4495000E-02   -2.5186983E-11
  2.4529999E-02   -5.1087783E-11
  2.4565000E-02    4.8924149E-11
  2.4599999E-02    9.0278549E-11
  2.4635000E-02    1.0106139E-11
  2.4669999E-02   -2.9256438E-11
  2.4705000E-02    1.3316485E-11
  2.4739999E-02    3.3456848E-11
  2.4775000E-02    2.7034241E-12
  2.4809999E-02   -1.9145662E-11
  2.4845000E-02    2.2038476E-12
  2.4879999E-02   -3.5462190E-13
  2.4915000E-02   -3.5971802E-11
  2.4950000E-02    7.1168933E-13
  2.4985000E-02    5.3802084E-11
  2.5020000E-02   -2.3126010E-11
  2.5055001E-02   -6.6108737E-11
  2.5090000E-02    7.8925130E-11
  2.5125001E-02    1.3615065E-10
  2.5160000E-02   -1.8033665E-11
  2.5195001E-02   -7.3031810E-11
  2.5230000E-02    2.1182330E-11
  2.5265001E-02    9.9342236E-12
  2.5300000E-02   -6.3122355E-11
  2.5335001E-02   -2.5405369E-11
  2.5370000E-02    2.2652076E-11
  2.5405001E-02   -2.2744704E-11
  2.5440000E-02   -3.9147661E-11
  2.5474999E-02    4.8937278E-11
  2.5510000E-02    1.0255082E-10
  2.5544999E-02    2.1327742E-12
  2.5580000E-02   -1.2159836E-10
  2.5614999E-02   -7.9374493E-11
  2.5650000E-02    4.4688229E-11
  2.5684999E-02    3.2204812E-11
  2.5720000E-02   -8.4048643E-11
  2.5754999E-02   -9.9677391E-11
  2.5790000E-02   -2.0107156E-11
  2.5824999E-02   -1.6115727E-11
  2.5860000E-02   -7.3414136E-11
  2.5895000E-02   -6.0281342E-11
  2.5930000E-02   -2.8061701E-11
  2.5965000E-02   -8.0969197E-11
  2.6000001E-02   -1.0190224E-10
  2.6035000E-02    5.7148474E-12
  2.6070001E-02    5.2935829E-11
  2.6105000E-02   -9.8212188E-11
  2.6140001E-02   -2.1412480E-10
  2.6175000E-02   -9.1982581E-11
  2.6210001E-02    3.4959688E-11
  2.6245000E-02   -8.4970149E-11
  2.6280001E-02   -2.2539760E-10
  2.6315000E-02   -9.9106397E-11
  2.6350001E-02    6.1264036E-11
  2.6385000E-02   -7.6558059E-11
  2.6419999E-02   -2.6664307E-10
  2.6455000E-02   -1.2586429E-10
  2.6489999E-02    8.5422176E-11
  2.6525000E-02   -2.8753331E-11
  2.6559999E-02   -2.0141236E-10
  2.6595000E-02   -1.0548586E-10
  2.6629999E-02   -2.4486470E-11
  2.6665000E-02   -1.4560826E-10
  2.6699999E-02   -1.8967845E-10
  2.6735000E-02   -1.0948640E-10
  2.6769999E-02   -8.9841072E-11
  2.6805000E-02   -6.0730670E-11
  2.6839999E-02    5.2236258E-12
  2.6875000E-02   -3.3780204E-11
  2.6910000E-02   -1.1997028E-10
  2.6945001E-02   -1.4215230E-10
  2.6980000E-02   -1.0032319E-10