 -4.8000002E-03    1.0000000E-24
 -4.7650002E-03    1.0000002E-24
 -4.7300002E-03    1.0000001E-24
 -4.6950001E-03    1.0000000E-24
 -4.6600001E-03    1.0000003E-24
 -4.6250001E-03    1.0000002E-24
 -4.5900000E-03    1.0000000E-24
 -4.5550000E-03    1.0000001E-24
 -4.5200000E-03    1.0000000E-24
 -4.4849999E-03    1.0000000E-24
 -4.4499999E-03    1.0000002E-24
 -4.4149999E-03    1.0000000E-24
 -4.3799998E-03    9.9999992E-25
 -4.3449998E-03    1.0000000E-24
 -4.3100002E-03    1.0000003E-24
 -4.2750002E-03    1.0000002E-24
 -4.2400002E-03    1.0000001E-24
 -4.2050001E-03    1.0000002E-24
 -4.1700001E-03    1.0000004E-24
 -4.1350001E-03    9.9999992E-25
 -4.1000000E-03    9.9999943E-25
 -4.0650000E-03    1.0000003E-24
 -4.0300000E-03    1.0000004E-24
 -3.9949999E-03    9.9999943E-25
 -3.9599999E-03    9.9999982E-25
 -3.9249999E-03    1.0000007E-24
 -3.8900001E-03    9.9999982E-25
 -3.8550000E-03    9.9999963E-25
 -3.8200000E-03    1.0000006E-24
 -3.7849999E-03    1.0000004E-24
 -3.7499999E-03    9.9999972E-25
 -3.7150001E-03    1.0000005E-24
 -3.6800001E-03    1.0000007E-24
 -3.6450000E-03    9.9999953E-25
 -3.6100000E-03    9.9999953E-25
 -3.5750000E-03    1.0000003E-24
 -3.5399999E-03    9.9999992E-25
 -3.5049999E-03    9.9999972E-25
 -3.4700001E-03    1.0000006E-24
 -3.4350001E-03    1.0000005E-24
 -3.4000000E-03    9.9999982E-25
 -3.3650000E-03    9.9999982E-25
 -3.3300000E-03    1.0000003E-24
 -3.2949999E-03    9.9999992E-25
 -3.2599999E-03    9.9999972E-25
 -3.2250001E-03    9.9999992E-25
 -3.1900001E-03    1.0000001E-24
 -3.1550000E-03    1.0000002E-24
 -3.1200000E-03    1.0000004E-24
 -3.0850000E-03    1.0000006E-24
 -3.0499999E-03    1.0000000E-24
 -3.0149999E-03    9.9999992E-25
 -2.9800001E-03    1.0000004E-24
 -2.9450001E-03    1.0000001E-24
 -2.9100000E-03    9.9999972E-25
 -2.8750000E-03    1.0000001E-24
 -2.8400000E-03    1.0000002E-24
 -2.8049999E-03    9.9999992E-25
 -2.7699999E-03    1.0000000E-24
 -2.7350001E-03    1.0000006E-24
 -2.7000001E-03    1.0000006E-24
 -2.6650000E-03    9.9999963E-25
 -2.6300000E-03    9.9999933E-25
 -2.5950000E-03    9.9999992E-25
 -2.5599999E-03    1.0000002E-24
 -2.5249999E-03    1.0000005E-24
 -2.4900001E-03    1.0000008E-24
 -2.4550001E-03    1.0000005E-24
 -2.4200000E-03    1.0000002E-24
 -2.3850000E-03    9.9999992E-25
 -2.3500000E-03    9.9999953E-25
 -2.3149999E-03    9.9999933E-25
 -2.2799999E-03    9.9999923E-25
 -2.2450001E-03    9.9999992E-25
 -2.2100001E-03    1.0000007E-24
 -2.1750000E-03    1.0000002E-24
 -2.1400000E-03    9.9999943E-25
 -2.1050000E-03    1.0000005E-24
 -2.0699999E-03    1.0000011E-24
 -2.0349999E-03    9.9999992E-25
 -2.0000001E-03    9.9999963E-25
 -1.9650001E-03    1.0000007E-24
 -1.9300000E-03    1.0000008E-24
 -1.8950000E-03    1.0000000E-24
 -1.8600000E-03    9.9999943E-25
 -1.8250000E-03    1.0000002E-24
 -1.7900000E-03    1.0000005E-24
 -1.7550000E-03    9.9999943E-25
 -1.7199999E-03    9.9999963E-25
 -1.6850000E-03    1.0000013E-24
 -1.6500000E-03    1.0000004E-24
 -1.6150000E-03    9.9999844E-25
 -1.5800000E-03    9.9999884E-25
 -1.5450000E-03    9.9999992E-25
 -1.5100000E-03    9.9999992E-25
 -1.4750001E-03    1.0000003E-24
 -1.4400000E-03    1.0000007E-24
 -1.4050000E-03    1.0000006E-24
 -1.3700000E-03    1.0000008E-24
 -1.3350000E-03    1.0000001E-24
 -1.3000000E-03    9.9999923E-25
 -1.2650000E-03    9.9999963E-25
 -1.2300001E-03    1.0000004E-24
 -1.1950000E-03    1.0000005E-24
 -1.1600000E-03    9.9999992E-25
 -1.1250000E-03    9.9999963E-25
 -1.0900000E-03    1.0000005E-24
 -1.0550000E-03    1.0000002E-24
 -1.0200000E-03    9.9999903E-25
 -9.8500005E-04    9.9999982E-25
 -9.5000002E-04    1.0000006E-24
 -9.1499998E-04    1.0000000E-24
 -8.8000001E-04    1.0000004E-24
 -8.4499997E-04    1.0000006E-24
 -8.1000000E-04    9.9999953E-25
 -7.7500002E-04    9.9999982E-25
 -7.3999999E-04    1.0000002E-24
 -7.0500001E-04    9.9999943E-25
 -6.6999998E-04    1.0000000E-24
 -6.3500000E-04    1.0000008E-24
 -6.0000003E-04    9.9999982E-25
 -5.6499999E-04    9.9999893E-25
 -5.3000002E-04    1.0000005E-24
 -4.9499999E-04    1.0000012E-24
 -4.6000001E-04    9.9999953E-25
 -4.2500001E-04    9.9999903E-25
 -3.9000000E-04    1.0000013E-24
 -3.5500000E-04    1.0000017E-24
 -3.1999999E-04    9.9999913E-25
 -2.8499999E-04    9.9999963E-25
 -2.5000001E-04    1.0000013E-24
 -2.1499999E-04    9.9999913E-25
 -1.8000000E-04    9.9999815E-25
 -1.4500000E-04    1.0000013E-24
 -1.1000000E-04    1.0000011E-24
 -7.5000004E-05    9.9999864E-25
 -3.9999999E-05    1.0000006E-24
 -4.9999999E-06    1.0000013E-24
  2.9999999E-05    9.9999933E-25
  6.5000000E-05    1.0000001E-24
  9.9999997E-05    1.0000007E-24
  1.3499999E-04    9.9999913E-25
  1.7000000E-04    9.9999992E-25
  2.0500000E-04    1.0000008E-24
  2.3999999E-04    9.9999972E-25
  2.7500000E-04    9.9999982E-25
  3.1000000E-04    1.0000005E-24
  3.4500001E-04    9.9999963E-25
  3.8000001E-04    1.0000000E-24
  4.1499999E-04    1.0000008E-24
  4.4999999E-04    1.0000001E-24
  4.8500000E-04    9.9999992E-25
  5.2000000E-04    9.9999972E-25
  5.5499998E-04    9.9999972E-25
  5.9000001E-04    1.0000003E-24
  6.2499999E-04    1.0000001E-24
  6.6000002E-04    9.9999963E-25
  6.9500000E-04    1.0000001E-24
  7.3000003E-04    1.0000004E-24
  7.6500000E-04    1.0000003E-24
  7.9999998E-04    1.0000008E-24
  8.3500001E-04    1.0000005E-24
  8.6999999E-04    9.9999913E-25
  9.0500002E-04    1.0000001E-24
  9.4000000E-04    1.0000012E-24
  9.7499997E-04    9.9999982E-25
  1.0100000E-03    9.9999972E-25
  1.0450000E-03    1.0000011E-24
  1.0800000E-03    9.9999963E-25
  1.1150000E-03    9.9999874E-25
  1.1500000E-03    1.0000005E-24
  1.1849999E-03    1.0000004E-24
  1.2200000E-03    9.9999874E-25
  1.2550000E-03    1.0000004E-24
  1.2900000E-03    1.0000016E-24
  1.3250000E-03    9.9999923E-25
  1.3600000E-03    9.9999943E-25
  1.3950000E-03    1.0000013E-24
  1.4299999E-03    9.9999933E-25
  1.4650000E-03    9.9999884E-25
  1.5000000E-03    1.0000013E-24
  1.5350000E-03    1.0000010E-24
  1.5700000E-03    9.9999913E-25
  1.6050000E-03    1.0000005E-24
  1.6400000E-03    1.0000007E-24
  1.6749999E-03    9.9999903E-25
  1.7100000E-03    9.9999992E-25
  1.7450000E-03    1.0000016E-24
  1.7800000E-03    1.0000002E-24
  1.8150000E-03    9.9999943E-25
  1.8500000E-03    1.0000008E-24
  1.8850000E-03    1.0000006E-24
  1.9200000E-03    9.9999903E-25
  1.9550000E-03    9.9999963E-25
  1.9900000E-03    1.0000007E-24
  2.0250001E-03    1.0000008E-24
  2.0600001E-03    9.9999933E-25
  2.0949999E-03    9.9999893E-25
  2.1299999E-03    1.0000007E-24
  2.1650000E-03    1.0000007E-24
  2.2000000E-03    9.9999874E-25
  2.2350000E-03    1.0000006E-24
  2.2700001E-03    1.0000035E-24
  2.3050001E-03    9.9999933E-25
  2.3399999E-03    9.9999489E-25
  2.3749999E-03    1.0000016E-24
  2.4100000E-03    1.0000079E-24
  2.4450000E-03    9.9999489E-25
  2.4800000E-03    9.9998858E-25
  2.5150001E-03    1.0000141E-24
  2.5500001E-03    1.0000155E-24
  2.5849999E-03    9.9996945E-25
  2.6199999E-03    9.9998395E-25
  2.6550000E-03    1.0000547E-24
  2.6900000E-03    1.0000040E-24
  2.7250000E-03    9.9991275E-25
  2.7600001E-03    1.0000283E-24
  2.7950001E-03    1.0001226E-24
  2.8299999E-03    9.9990871E-25
  2.8649999E-03    9.9985467E-25
  2.9000000E-03    1.0001994E-24
  2.9350000E-03    1.0001318E-24
  2.9700000E-03    9.9964345E-25
  3.0050001E-03    9.9996738E-25
  3.0400001E-03    1.0005573E-24
  3.0749999E-03    9.9977421E-25
  3.1099999E-03    9.9923443E-25
  3.1450000E-03    1.0007453E-24
  3.1800000E-03    1.0008862E-24
  3.2150000E-03    9.9833799E-25
  3.2500001E-03    9.9927101E-25
  3.2850001E-03    1.0031422E-24
  3.3199999E-03    9.9995939E-25
  3.3549999E-03    9.9464168E-25
  3.3900000E-03    1.0019774E-24
  3.4250000E-03    1.0084616E-24
  3.4600000E-03    9.9406276E-25
  3.4950001E-03    9.8748464E-25
  3.5300001E-03    1.0131844E-24
  3.5649999E-03    1.0174212E-24
  3.5999999E-03    9.7451804E-25
  3.6350000E-03    9.7719267E-25
  3.6700000E-03    1.0451778E-24
  3.7050000E-03    1.0279266E-24
  3.7400001E-03    9.2478578E-25
  3.7750001E-03    9.6840111E-25
  3.8099999E-03    1.1189752E-24
  3.8449999E-03    1.0322530E-24
  3.8800000E-03    8.2013327E-25
  3.9149998E-03    9.7176688E-25
  3.9499998E-03    1.2603631E-24
  3.9849998E-03    1.0185486E-24
  4.0199999E-03    6.3986165E-25
  4.0549999E-03    9.9571453E-25
  4.0899999E-03    1.4727131E-24
  4.1250000E-03    9.9096717E-25
  4.1600000E-03    4.2033231E-25
  4.1950000E-03    1.0079661E-24
  4.2300001E-03    1.6410338E-24
  4.2650001E-03    1.0333082E-24
  4.3000001E-03    4.2009762E-25
  4.3350002E-03    8.4233808E-25
  4.3700002E-03    1.2586552E-24
  4.4049998E-03    1.4278520E-24
  4.4399998E-03    1.5562456E-24
  4.4749998E-03    7.6784109E-26
  4.5099999E-03   -1.2439173E-24
  4.5449999E-03    2.7224436E-24
  4.5799999E-03    6.3948035E-24
  4.6150000E-03   -1.8594528E-24
  4.6500000E-03   -9.8900028E-24
  4.6850001E-03    5.2326804E-24
  4.7200001E-03    2.0983923E-23
  4.7550001E-03   -4.4405146E-24
  4.7900002E-03   -3.3364077E-23
  4.8250002E-03    6.5089272E-24
  4.8600002E-03    5.7136874E-23
  4.8949998E-03   -1.4768436E-24
  4.9299998E-03   -8.6650280E-23
  4.9649999E-03   -6.1867533E-24
  4.9999999E-03    1.3200840E-22
  5.0349999E-03    3.0318575E-23
  5.0700000E-03   -1.8606891E-22
  5.1050000E-03   -7.1867412E-23
  5.1400000E-03    2.5464097E-22
  5.1750001E-03    1.5154015E-22
  5.2100001E-03   -3.2154491E-22
  5.2450001E-03   -2.7784918E-22
  5.2800002E-03    3.7619365E-22
  5.3150002E-03    4.7777632E-22
  5.3500002E-03   -3.7548684E-22
  5.3849998E-03   -7.6085980E-22
  5.4199998E-03    2.6813140E-22
  5.4549999E-03    1.1429787E-21
  5.4899999E-03    4.5810696E-23
  5.5249999E-03   -1.5996790E-21
  5.5600000E-03   -6.9019705E-22
  5.5950000E-03    2.0745825E-21
  5.6300000E-03    1.8471717E-21
  5.6650001E-03   -2.4126683E-21
  5.7000001E-03   -3.7164340E-21
  5.7350001E-03    2.3457719E-21
  5.7700002E-03    6.5183177E-21
  5.8050002E-03   -1.4043376E-21
  5.8400002E-03   -1.0400290E-20
  5.8749998E-03   -1.1087816E-21
  5.9099998E-03    1.5360267E-20
  5.9449999E-03    6.1941437E-21
  5.9799999E-03   -2.1044260E-20
  6.0149999E-03   -1.5124655E-20
  6.0500000E-03    2.6535528E-20
  6.0850000E-03    2.9391165E-20
  6.1200000E-03   -3.0010119E-20
  6.1550001E-03   -5.0436058E-20
  6.1900001E-03    2.8412278E-20
  6.2250001E-03    7.9226551E-20
  6.2600002E-03   -1.7085765E-20
  6.2950002E-03   -1.1545836E-19
  6.3299998E-03   -1.0388951E-20
  6.3649998E-03    1.5645276E-19
  6.3999998E-03    6.2092629E-20
  6.4349999E-03   -1.9558963E-19
  6.4699999E-03   -1.4698962E-19
  6.5049999E-03    2.2049306E-19
  6.5400000E-03    2.7326516E-19
  6.5750000E-03   -2.1106169E-19
  6.6100000E-03   -4.4526078E-19
  6.6450001E-03    1.3795373E-19
  6.6800001E-03    6.5876953E-19
  6.7150001E-03    3.7829234E-20
  6.7500002E-03   -8.9442150E-19
  6.7850002E-03   -3.6302199E-19
  6.8199998E-03    1.1094220E-18
  6.8549998E-03    8.8647313E-19
  6.8899998E-03   -1.2283738E-18
  6.9249999E-03   -1.6480962E-18
  6.9599999E-03    1.1350533E-18
  6.9949999E-03    2.6609519E-18
  7.0300000E-03   -6.6787990E-19
  7.0650000E-03   -3.8853021E-18
  7.1000000E-03   -3.7635891E-19
  7.1350001E-03    5.1954147E-18
  7.1700001E-03    2.2252211E-18
  7.2050001E-03   -6.3413262E-18
  7.2400002E-03   -5.0930586E-18
  7.2750002E-03    6.9123249E-18
  7.3099998E-03    9.1173882E-18
  7.3449998E-03   -6.3120151E-18
  7.3799998E-03   -1.4264854E-17
  7.4149999E-03    3.7612064E-18
  7.4499999E-03    2.0208482E-17
  7.4850000E-03    1.6521185E-18
  7.5200000E-03   -2.6184038E-17
  7.5550000E-03   -1.0852811E-17
  7.5900001E-03    3.0848268E-17
  7.6250001E-03    2.4566382E-17
  7.6600001E-03   -3.2172750E-17
  7.6950002E-03   -4.3002165E-17
  7.7300002E-03    2.7426523E-17
  7.7650002E-03    6.5433553E-17
  7.7999998E-03   -1.3317607E-17
  7.8349998E-03   -8.9708393E-17
  7.8699999E-03   -1.3640792E-17
  7.9049999E-03    1.1175574E-16
  7.9399999E-03    5.6463620E-17
  7.9750000E-03   -1.2520719E-16
  8.0100000E-03   -1.1669059E-16
  8.0450000E-03    1.2129927E-16
  8.0800001E-03    1.9306091E-16
  8.1150001E-03   -8.9264309E-17
  8.1500001E-03   -2.7997343E-16
  8.1850002E-03    1.7424722E-17
  8.2200002E-03    3.6595037E-16
  8.2550002E-03    1.0481284E-16
  8.2900003E-03   -4.3246154E-16
  8.3250003E-03   -2.8397391E-16
  8.3600003E-03    4.5361288E-16
  8.3950004E-03    5.1862186E-16
  8.4300004E-03   -3.9728228E-16
  8.4650004E-03   -7.9491167E-16
  8.5000005E-03    2.2827493E-16
  8.5349996E-03    1.0822452E-15
  8.5699996E-03    8.5988039E-17
  8.6049996E-03   -1.3300953E-15
  8.6399997E-03   -5.6711789E-16
  8.6749997E-03    1.4673445E-15
  8.7099997E-03    1.2151768E-15
  8.7449998E-03   -1.4056758E-15
  8.7799998E-03   -1.9968317E-15
  8.8149998E-03    1.0484076E-15
  8.8499999E-03    2.8343306E-15
  8.8849999E-03   -3.0581709E-16
  8.9199999E-03   -3.5979469E-15
  8.9550000E-03   -8.8307457E-16
  8.9900000E-03    4.1055094E-15
  9.0250000E-03    2.5237514E-15
  9.0600001E-03   -4.1324345E-15
  9.0950001E-03   -4.5375856E-15
  9.1300001E-03    3.4352524E-15
  9.1650002E-03    6.7363730E-15
  9.2000002E-03   -1.7904108E-15
  9.2350002E-03   -8.8073571E-15
  9.2700003E-03   -9.5304833E-16
  9.3050003E-03    1.0315973E-14
  9.3400003E-03    4.8112297E-15
  9.3750004E-03   -1.0734213E-14
  9.4100004E-03   -9.6021408E-15
  9.4450004E-03    9.4995736E-15
  9.4799995E-03    1.4894205E-14
  9.5149996E-03   -6.1058738E-15
  9.5499996E-03   -1.9980686E-14
  9.5849996E-03    2.2184146E-16
  9.6199997E-03    2.3897483E-14
  9.6549997E-03    8.1774153E-15
  9.6899997E-03   -2.5496417E-14
  9.7249998E-03   -1.8682760E-14
  9.7599998E-03    2.3582205E-14
  9.7949998E-03    3.0358294E-14
  9.8299999E-03   -1.7109827E-14
  9.8649999E-03   -4.1710613E-14
  9.8999999E-03    5.4268499E-15
  9.9350000E-03    5.0748641E-14
  9.9700000E-03    1.1467648E-14
  1.0005000E-02   -5.5157911E-14
  1.0040000E-02   -3.2694550E-14
  1.0075000E-02    5.2592225E-14
  1.0110000E-02    5.6345269E-14
  1.0145000E-02   -4.1067576E-14
  1.0180000E-02   -7.9466700E-14
  1.0215000E-02    1.9421729E-14
  1.0250000E-02    9.8226291E-14
  1.0285000E-02    1.2225026E-14
  1.0320000E-02   -1.0827838E-13
  1.0355000E-02   -5.2086228E-14
  1.0390000E-02    1.0534210E-13
  1.0425000E-02    9.6508569E-14
  1.0460000E-02   -8.5930002E-14
  1.0495000E-02   -1.4002277E-13
  1.0530000E-02    4.8151062E-14
  1.0565000E-02    1.7572403E-13
  1.0600000E-02    7.5363257E-15
  1.0635000E-02   -1.9597761E-13
  1.0670000E-02   -7.7721798E-14
  1.0705000E-02    1.9347371E-13
  1.0740000E-02    1.5581148E-13
  1.0775000E-02   -1.6250010E-13
  1.0810000E-02   -2.3226776E-13
  1.0845000E-02    1.0025564E-13
  1.0880000E-02    2.9538099E-13
  1.0915000E-02   -7.9955065E-15
  1.0950000E-02   -3.3253738E-13
  1.0985000E-02   -1.0811491E-13
  1.1020000E-02    3.3200967E-13
  1.1055000E-02    2.3676363E-13
  1.1090000E-02   -2.8509413E-13
  1.1125000E-02   -3.6213269E-13
  1.1160000E-02    1.8814922E-13
  1.1195000E-02    4.6542278E-13
  1.1230000E-02   -4.4189448E-14
  1.1265000E-02   -5.2698964E-13
  1.1300000E-02   -1.3604635E-13
  1.1335000E-02    5.2917040E-13
  1.1370000E-02    3.3389540E-13
  1.1405000E-02   -4.5972259E-13
  1.1440000E-02   -5.2415207E-13
  1.1475000E-02    3.1504863E-13
  1.1510000E-02    6.7807202E-13
  1.1545000E-02   -1.0207136E-13
  1.1580000E-02   -7.6696077E-13
  1.1615000E-02   -1.6090958E-13
  1.1650000E-02    7.6617608E-13
  1.1685000E-02    4.4414277E-13
  1.1720000E-02   -6.6032558E-13
  1.1755000E-02   -7.0880546E-13
  1.1790000E-02    4.4851598E-13
  1.1825000E-02    9.1291135E-13
  1.1860000E-02   -1.4631437E-13
  1.1895000E-02   -1.0178917E-12
  1.1930000E-02   -2.1539472E-13
  1.1965000E-02    9.9333269E-13
  1.2000000E-02    5.9115061E-13
  1.2035000E-02   -8.2332486E-13
  1.2070000E-02   -9.2355409E-13
  1.2105000E-02    5.1551374E-13
  1.2140000E-02    1.1540742E-12
  1.2175000E-02   -1.0376127E-13
  1.2210000E-02   -1.2368222E-12
  1.2245000E-02   -3.5958736E-13
  1.2280000E-02    1.1435025E-12
  1.2315000E-02    8.0921251E-13
  1.2350000E-02   -8.6597542E-13
  1.2385000E-02   -1.1666896E-12
  1.2420000E-02    4.3030586E-13
  1.2455000E-02    1.3553863E-12
  1.2490000E-02    9.4652971E-14
  1.2525000E-02   -1.3313002E-12
  1.2560000E-02   -6.1936735E-13
  1.2595000E-02    1.0915175E-12
  1.2630000E-02    1.0589386E-12
  1.2665000E-02   -6.5695209E-13
  1.2700000E-02   -1.3248931E-12
  1.2735000E-02    8.3830749E-14
  1.2770000E-02    1.3293814E-12
  1.2805000E-02    5.0510973E-13
  1.2840000E-02   -1.0472448E-12
  1.2875000E-02   -9.5930035E-13
  1.2910000E-02    5.4840323E-13
  1.2945000E-02    1.1838446E-12
  1.2980000E-02    6.9990414E-14
  1.3015000E-02   -1.1275318E-12
  1.3050000E-02   -7.1555766E-13
  1.3085000E-02    7.2508953E-13
  1.3120000E-02    1.2152129E-12
  1.3155000E-02    1.0915919E-14
  1.3190000E-02   -1.3352295E-12
  1.3225000E-02   -8.7060399E-13
  1.3260000E-02    9.9254470E-13
  1.3295000E-02    1.5955105E-12
  1.3330000E-02   -2.8913121E-13
  1.3365000E-02   -2.0735308E-12
  1.3400000E-02   -7.2274982E-13
  1.3435000E-02    2.1698288E-12
  1.3470000E-02    1.9987605E-12
  1.3505000E-02   -1.5840753E-12
  1.3540000E-02   -3.1580118E-12
  1.3575000E-02    2.5944917E-13
  1.3610000E-02    3.6680446E-12
  1.3645000E-02    1.3614087E-12
  1.3680000E-02   -3.4496561E-12
  1.3715000E-02   -2.9225680E-12
  1.3750000E-02    2.6677749E-12
  1.3785000E-02    4.4427869E-12
  1.3820000E-02   -1.0596833E-12
  1.3855000E-02   -5.5107889E-12
  1.3890000E-02   -1.4946895E-12
  1.3925000E-02    5.1992824E-12
  1.3960000E-02    4.0380629E-12
  1.3995000E-02   -3.4844360E-12
  1.4030000E-02   -5.5878206E-12
  1.4065000E-02    1.3310544E-12
  1.4100000E-02    6.4539663E-12
  1.4135000E-02    1.2057553E-12
  1.4170000E-02   -6.7354885E-12
  1.4205000E-02   -4.6901875E-12
  1.4240000E-02    5.0307068E-12
  1.4275000E-02    7.7517602E-12
  1.4310000E-02   -1.1140778E-12
  1.4345000E-02   -8.2524612E-12
  1.4380000E-02   -2.5868637E-12
  1.4415000E-02    7.0329927E-12
  1.4450000E-02    5.0643261E-12
  1.4485000E-02   -5.9070218E-12
  1.4520000E-02   -8.1877847E-12
  1.4555000E-02    3.1194474E-12
  1.4590000E-02    1.1080993E-11
  1.4625000E-02    2.8041746E-12
  1.4660000E-02   -9.6854105E-12
  1.4695000E-02   -7.6328102E-12
  1.4730000E-02    5.0416537E-12
  1.4765000E-02    8.1477377E-12
  1.4800000E-02   -2.4650045E-12
  1.4835000E-02   -8.6233477E-12
  1.4870000E-02    4.9391388E-13
  1.4905000E-02    1.0829265E-11
  1.4940000E-02    5.8139079E-12
  1.4975000E-02   -7.8535798E-12
  1.5010000E-02   -1.1090345E-11
  1.5045000E-02   -8.4222131E-13
  1.5080000E-02    7.6551343E-12
  1.5115000E-02    4.4929538E-12
  1.5150000E-02   -2.7001916E-12
  1.5185000E-02   -2.4511970E-12
  1.5220000E-02    4.2410593E-12
  1.5255000E-02    6.3498629E-12
  1.5290000E-02   -1.8796423E-12
  1.5325000E-02   -1.2065901E-11
  1.5360000E-02   -1.0372647E-11
  1.5395000E-02    4.1356367E-12
  1.5430000E-02    1.4856961E-11
  1.5465000E-02    8.3496448E-12
  1.5500000E-02   -5.3063704E-12
  1.5535000E-02   -6.1864962E-12
  1.5570000E-02    3.8833160E-12
  1.5605000E-02    3.2256366E-12
  1.5640000E-02   -1.2278712E-11
  1.5675001E-02   -1.7559744E-11
  1.5710000E-02    2.4083626E-12
  1.5745001E-02    2.4215432E-11
  1.5780000E-02    1.8739239E-11
  1.5814999E-02   -4.7830247E-12
  1.5850000E-02   -1.4427922E-11
  1.5884999E-02   -4.8022883E-12
  1.5920000E-02   -1.9965458E-13
  1.5954999E-02   -1.0497330E-11
  1.5990000E-02   -1.4464958E-11
  1.6024999E-02    4.1504868E-12
  1.6060000E-02    2.7678387E-11
  1.6094999E-02    2.7255448E-11
  1.6130000E-02    1.6901701E-12
  1.6164999E-02   -2.1977345E-11
  1.6200000E-02   -2.3150421E-11
  1.6235000E-02   -1.0094195E-11
  1.6270000E-02   -3.0527536E-12
  1.6305000E-02   -3.1544296E-12
  1.6340001E-02    7.3976164E-12
  1.6375000E-02    3.0556929E-11
  1.6410001E-02    3.7037186E-11
  1.6445000E-02    5.4538700E-12
  1.6480001E-02   -3.6968210E-11
  1.6515000E-02   -4.3958483E-11
  1.6550001E-02   -1.5183478E-11
  1.6585000E-02    6.6347704E-12
  1.6620001E-02    6.0078947E-12
  1.6655000E-02    1.4381186E-11
  1.6690001E-02    4.2482694E-11
  1.6725000E-02    4.5732675E-11
  1.6759999E-02   -4.4013634E-12
  1.6795000E-02   -5.9272580E-11
  1.6829999E-02   -5.6489292E-11
  1.6865000E-02   -1.2103856E-11
  1.6899999E-02    1.1975368E-11
  1.6935000E-02    9.7736107E-12
  1.6969999E-02    2.7173611E-11
  1.7005000E-02    6.2118408E-11
  1.7039999E-02    5.1318207E-11
  1.7075000E-02   -2.2037200E-11
  1.7109999E-02   -8.2476630E-11
  1.7145000E-02   -6.6151501E-11
  1.7180000E-02   -9.8655190E-12
  1.7215000E-02    1.6831397E-11
  1.7250000E-02    1.8123236E-11
  1.7285001E-02    4.2155276E-11
  1.7320000E-02    7.6709007E-11
  1.7355001E-02    5.5738750E-11
  1.7390000E-02   -2.9656479E-11
  1.7425001E-02   -9.9397796E-11
  1.7460000E-02   -8.7153514E-11
  1.7495001E-02   -2.1399823E-11
  1.7530000E-02    2.8172952E-11
  1.7565001E-02    4.4382487E-11
  1.7600000E-02    5.9481052E-11
  1.7635001E-02    7.9253694E-11
  1.7670000E-02    6.1028099E-11
  1.7704999E-02   -1.8993368E-11
  1.7740000E-02   -1.0842352E-10
  1.7774999E-02   -1.2249916E-10
  1.7810000E-02   -4.3947557E-11
  1.7844999E-02    5.2283143E-11
  1.7880000E-02    9.1083530E-11
  1.7914999E-02    8.2994230E-11
  1.7950000E-02    7.9470749E-11
  1.7984999E-02    7.0688212E-11
  1.8020000E-02    1.5898521E-12
  1.8054999E-02   -1.0687275E-10
  1.8090000E-02   -1.4148617E-10
  1.8124999E-02   -4.6231241E-11
  1.8160000E-02    8.6966274E-11
  1.8195000E-02    1.4136316E-10
  1.8230001E-02    1.2443679E-10
  1.8265000E-02    1.1236506E-10
  1.8300001E-02    1.0355911E-10
  1.8335000E-02    3.8312780E-11
  1.8370001E-02   -6.1090334E-11
  1.8405000E-02   -8.7766801E-11
  1.8440001E-02    1.7405149E-12
  1.8475000E-02    1.3202595E-10
  1.8510001E-02    2.1844691E-10
  1.8545000E-02    2.4956323E-10
  1.8580001E-02    2.4344421E-10
  1.8615000E-02    2.0336070E-10
  1.8650001E-02    1.4602307E-10
  1.8685000E-02    1.1151011E-10
  1.8719999E-02    1.2274919E-10
  1.8755000E-02    1.8053670E-10
  1.8789999E-02    2.9201416E-10
  1.8825000E-02    4.4373932E-10
  1.8859999E-02    5.6333510E-10
  1.8895000E-02    5.8582750E-10
  1.8929999E-02    5.4772703E-10
  1.8965000E-02    5.3880000E-10
  1.8999999E-02    5.8003147E-10
  1.9035000E-02    6.3643124E-10
  1.9069999E-02    7.2528805E-10
  1.9105000E-02    9.0108743E-10
  1.9140000E-02    1.1383119E-09
  1.9175000E-02    1.3369801E-09
  1.9210000E-02    1.4518323E-09
  1.9245001E-02    1.5291994E-09
  1.9280000E-02    1.6249468E-09
  1.9315001E-02    1.7698245E-09
  1.9350000E-02    1.9928554E-09
  1.9385001E-02    2.2917357E-09
  1.9420000E-02    2.6081730E-09
  1.9455001E-02    2.9092906E-09
  1.9490000E-02    3.2423912E-09
  1.9525001E-02    3.6333365E-09
  1.9560000E-02    4.0173238E-09
  1.9595001E-02    4.3701682E-09
  1.9630000E-02    4.8021804E-09
  1.9664999E-02    5.3928004E-09
  1.9700000E-02    6.0400116E-09
  1.9734999E-02    6.6240977E-09
  1.9770000E-02    7.2159185E-09
  1.9804999E-02    7.9600353E-09
  1.9840000E-02    8.8462322E-09
  1.9874999E-02    9.7716848E-09
  1.9910000E-02    1.0748153E-08
  1.9944999E-02    1.1865974E-08
  1.9980000E-02    1.3108000E-08
  2.0014999E-02    1.4367444E-08
  2.0050000E-02    1.5621980E-08
  2.0085000E-02    1.6969590E-08
  2.0120000E-02    1.8524645E-08
  2.0155000E-02    2.0345713E-08
  2.0190001E-02    2.2402544E-08
  2.0225000E-02    2.4586434E-08
  2.0260001E-02    2.6832932E-08
  2.0295000E-02    2.9218473E-08
  2.0330001E-02    3.1822189E-08
  2.0365000E-02    3.4573066E-08
  2.0400001E-02    3.7403662E-08
  2.0435000E-02    4.0472830E-08
  2.0470001E-02    4.4010854E-08
  2.0505000E-02    4.7974140E-08
  2.0540001E-02    5.2133384E-08
  2.0575000E-02    5.6480488E-08
  2.0609999E-02    6.1202250E-08
  2.0645000E-02    6.6276606E-08
  2.0679999E-02    7.1490817E-08
  2.0715000E-02    7.6880461E-08
  2.0749999E-02    8.2754767E-08
  2.0785000E-02    8.9263182E-08
  2.0819999E-02    9.6283649E-08
  2.0855000E-02    1.0374115E-07
  2.0889999E-02    1.1173405E-07
  2.0925000E-02    1.2029938E-07
  2.0959999E-02    1.2929910E-07
  2.0995000E-02    1.3863246E-07
  2.1029999E-02    1.4836982E-07
  2.1065000E-02    1.5865560E-07
  2.1100000E-02    1.6967779E-07
  2.1135001E-02    1.8164185E-07
  2.1170000E-02    1.9453131E-07
  2.1205001E-02    2.0807859E-07
  2.1240000E-02    2.2217634E-07
  2.1275001E-02    2.3702900E-07
  2.1310000E-02    2.5273800E-07
  2.1345001E-02    2.6909657E-07
  2.1380000E-02    2.8601008E-07
  2.1415001E-02    3.0382287E-07
  2.1450000E-02    3.2294110E-07
  2.1485001E-02    3.4329454E-07
  2.1520000E-02    3.6458511E-07
  2.1555001E-02    3.8680736E-07
  2.1590000E-02    4.1005782E-07
  2.1624999E-02    4.3425126E-07
  2.1660000E-02    4.5936585E-07
  2.1694999E-02    4.8559679E-07
  2.1730000E-02    5.1305506E-07
  2.1764999E-02    5.4169305E-07
  2.1800000E-02    5.7154710E-07
  2.1834999E-02    6.0276562E-07
  2.1870000E-02    6.3542035E-07
  2.1904999E-02    6.6938361E-07
  2.1940000E-02    7.0452751E-07
  2.1974999E-02    7.4088842E-07
  2.2010000E-02    7.7844737E-07
  2.2045000E-02    8.1714950E-07
  2.2080000E-02    8.5726435E-07
  2.2115000E-02    8.9912561E-07
  2.2150001E-02    9.4248861E-07
  2.2185000E-02    9.8695807E-07
  2.2220001E-02    1.0327188E-06
  2.2255000E-02    1.0801803E-06
  2.2290001E-02    1.1292819E-06
  2.2325000E-02    1.1795448E-06
  2.2360001E-02    1.2307817E-06
  2.2395000E-02    1.2834105E-06
  2.2430001E-02    1.3377352E-06
  2.2465000E-02    1.3934184E-06
  2.2500001E-02    1.4502324E-06
  2.2535000E-02    1.5085129E-06
  2.2569999E-02    1.5682133E-06
  2.2605000E-02    1.6289215E-06
  2.2639999E-02    1.6908925E-06
  2.2675000E-02    1.7544955E-06
  2.2709999E-02    1.8192781E-06
  2.2745000E-02    1.8847329E-06
  2.2779999E-02    1.9509666E-06
  2.2815000E-02    2.0183177E-06
  2.2849999E-02    2.0869743E-06
  2.2885000E-02    2.1566480E-06
  2.2919999E-02    2.2268687E-06
  2.2955000E-02    2.2980284E-06
  2.2990000E-02    2.3703642E-06
  2.3025000E-02    2.4430417E-06
  2.3060000E-02    2.5159657E-06
  2.3095001E-02    2.5898992E-06
  2.3130000E-02    2.6641756E-06
  2.3165001E-02    2.7380584E-06
  2.3200000E-02    2.8124930E-06
  2.3235001E-02    2.8878278E-06
  2.3270000E-02    2.9631162E-06
  2.3305001E-02    3.0380986E-06
  2.3340000E-02    3.1129780E-06
  2.3375001E-02    3.1878049E-06
  2.3410000E-02    3.2627470E-06
  2.3445001E-02    3.3372262E-06
  2.3480000E-02    3.4108275E-06
  2.3514999E-02    3.4844004E-06
  2.3550000E-02    3.5574249E-06
  2.3584999E-02    3.6285205E-06
  2.3620000E-02    3.6990364E-06
  2.3654999E-02    3.7700822E-06
  2.3690000E-02    3.8397570E-06
  2.3724999E-02    3.9075348E-06
  2.3760000E-02    3.9748179E-06
  2.3794999E-02    4.0411037E-06
  2.3830000E-02    4.1056492E-06
  2.3864999E-02    4.1687663E-06
  2.3900000E-02    4.2299826E-06
  2.3934999E-02    4.2895740E-06
  2.3970000E-02    4.3481618E-06
  2.4005000E-02    4.4044446E-06
  2.4040001E-02    4.4588005E-06
  2.4075000E-02    4.5130955E-06
  2.4110001E-02    4.5651623E-06
  2.4145000E-02    4.6133082E-06
  2.4180001E-02    4.6605733E-06
  2.4215000E-02    4.7071539E-06
  2.4250001E-02    4.7501912E-06
  2.4285000E-02    4.7906583E-06
  2.4320001E-02    4.8296010E-06
  2.4355000E-02    4.8658831E-06
  2.4390001E-02    4.9006558E-06
  2.4425000E-02    4.9340088E-06
  2.4460001E-02    4.9642108E-06
  2.4495000E-02    4.9930936E-06
  2.4529999E-02    5.0208214E-06
  2.4565000E-02    5.0440212E-06
  2.4599999E-02    5.0648996E-06
  2.4635000E-02    5.0860403E-06
  2.4669999E-02    5.1033967E-06
  2.4705000E-02    5.1172478E-06
  2.4739999E-02    5.1318320E-06
  2.4775000E-02    5.1446291E-06
  2.4809999E-02    5.1541056E-06
  2.4845000E-02    5.1633206E-06
  2.4879999E-02    5.1704687E-06
  2.4915000E-02    5.1745360E-06
  2.4950000E-02    5.1785705E-06
  2.4985000E-02    5.1798638E-06
  2.5020000E-02    5.1772213E-06
  2.5055001E-02    5.1761476E-06
  2.5090000E-02    5.1747475E-06
  2.5125001E-02    5.1692173E-06
  2.5160000E-02    5.1647371E-06
  2.5195001E-02    5.1608563E-06
  2.5230000E-02    5.1524416E-06
  2.5265001E-02    5.1441248E-06
  2.5300000E-02    5.1373127E-06
  2.5335001E-02    5.1264219E-06
  2.5370000E-02    5.1148609E-06
  2.5405001E-02    5.1051711E-06
  2.5440000E-02    5.0926533E-06
  2.5474999E-02    5.0809945E-06
  2.5510000E-02    5.0725089E-06
  2.5544999E-02    5.0599238E-06
  2.5580000E-02    5.0465001E-06
  2.5614999E-02    5.0379585E-06
  2.5650000E-02    5.0264330E-06
  2.5684999E-02    5.0118110E-06
  2.5720000E-02    5.0015701E-06
  2.5754999E-02    4.9903856E-06
  2.5790000E-02    4.9769901E-06
  2.5824999E-02    4.9687219E-06
  2.5860000E-02    4.9602249E-06
  2.5895000E-02    4.9483106E-06
  2.5930000E-02    4.9411269E-06
  2.5965000E-02    4.9348869E-06
  2.6000001E-02    4.9247788E-06
  2.6035000E-02    4.9185787E-06
  2.6070001E-02    4.9133428E-06
  2.6105000E-02    4.9031082E-06
  2.6140001E-02    4.8969996E-06
  2.6175000E-02    4.8946195E-06
  2.6210001E-02    4.8875108E-06
  2.6245000E-02    4.8827592E-06
  2.6280001E-02    4.8820411E-06
  2.6315000E-02    4.8764882E-06
  2.6350001E-02    4.8717793E-06
  2.6385000E-02    4.8712604E-06
  2.6419999E-02    4.8660772E-06
  2.6455000E-02    4.8609727E-06
  2.6489999E-02    4.8610023E-06
  2.6525000E-02    4.8569200E-06
  2.6559999E-02    4.8514394E-06
  2.6595000E-02    4.8510756E-06
  2.6629999E-02    4.8475281E-06
  2.6665000E-02    4.8422439E-06
  2.6699999E-02    4.8422471E-06
  2.6735000E-02    4.8386305E-06
  2.6769999E-02    4.8310117E-06
  2.6805000E-02    4.8287829E-06
  2.6839999E-02    4.8251331E-06
  2.6875000E-02    4.8173683E-06
  2.6910000E-02    4.8140082E-06
  2.6945001E-02    4.8090110E-06
  2.6980000E-02    4.7993299E-06