 -4.8000002E-03    1.0000000E-24
 -4.7650002E-03    1.0000000E-24
 -4.7300002E-03    1.0000001E-24
 -4.6950001E-03    1.0000002E-24
 -4.6600001E-03    1.0000002E-24
 -4.6250001E-03    1.0000000E-24
 -4.5900000E-03    1.0000000E-24
 -4.5550000E-03    1.0000002E-24
 -4.5200000E-03    1.0000001E-24
 -4.4849999E-03    1.0000002E-24
 -4.4499999E-03    1.0000001E-24
 -4.4149999E-03    9.9999992E-25
 -4.3799998E-03    1.0000000E-24
 -4.3449998E-03    1.0000004E-24
 -4.3100002E-03    1.0000004E-24
 -4.2750002E-03    9.9999992E-25
 -4.2400002E-03    9.9999972E-25
 -4.2050001E-03    1.0000000E-24
 -4.1700001E-03    1.0000002E-24
 -4.1350001E-03    1.0000000E-24
 -4.1000000E-03    1.0000000E-24
 -4.0650000E-03    1.0000000E-24
 -4.0300000E-03    1.0000000E-24
 -3.9949999E-03    1.0000002E-24
 -3.9599999E-03    1.0000001E-24
 -3.9249999E-03    9.9999992E-25
 -3.8900001E-03    1.0000001E-24
 -3.8550000E-03    1.0000003E-24
 -3.8200000E-03    9.9999992E-25
 -3.7849999E-03    1.0000000E-24
 -3.7499999E-03    1.0000004E-24
 -3.7150001E-03    1.0000003E-24
 -3.6800001E-03    1.0000001E-24
 -3.6450000E-03    1.0000000E-24
 -3.6100000E-03    9.9999982E-25
 -3.5750000E-03    9.9999963E-25
 -3.5399999E-03    1.0000000E-24
 -3.5049999E-03    1.0000005E-24
 -3.4700001E-03    1.0000005E-24
 -3.4350001E-03    1.0000002E-24
 -3.4000000E-03    1.0000000E-24
 -3.3650000E-03    9.9999972E-25
 -3.3300000E-03    9.9999963E-25
 -3.2949999E-03    9.9999992E-25
 -3.2599999E-03    1.0000001E-24
 -3.2250001E-03    1.0000003E-24
 -3.1900001E-03    1.0000003E-24
 -3.1550000E-03    1.0000001E-24
 -3.1200000E-03    9.9999972E-25
 -3.0850000E-03    9.9999982E-25
 -3.0499999E-03    1.0000001E-24
 -3.0149999E-03    1.0000003E-24
 -2.9800001E-03    1.0000002E-24
 -2.9450001E-03    1.0000002E-24
 -2.9100000E-03    1.0000000E-24
 -2.8750000E-03    9.9999982E-25
 -2.8400000E-03    1.0000001E-24
 -2.8049999E-03    1.0000001E-24
 -2.7699999E-03    9.9999982E-25
 -2.7350001E-03    1.0000001E-24
 -2.7000001E-03    1.0000005E-24
 -2.6650000E-03    1.0000002E-24
 -2.6300000E-03    1.0000002E-24
 -2.5950000E-03    1.0000005E-24
 -2.5599999E-03    1.0000004E-24
 -2.5249999E-03    1.0000003E-24
 -2.4900001E-03    1.0000002E-24
 -2.4550001E-03    9.9999992E-25
 -2.4200000E-03    9.9999963E-25
 -2.3850000E-03    1.0000000E-24
 -2.3500000E-03    1.0000002E-24
 -2.3149999E-03    1.0000001E-24
 -2.2799999E-03    1.0000003E-24
 -2.2450001E-03    1.0000002E-24
 -2.2100001E-03    9.9999953E-25
 -2.1750000E-03    9.9999963E-25
 -2.1400000E-03    1.0000002E-24
 -2.1050000E-03    1.0000003E-24
 -2.0699999E-03    9.9999982E-25
 -2.0349999E-03    1.0000002E-24
 -2.0000001E-03    1.0000010E-24
 -1.9650001E-03    1.0000007E-24
 -1.9300000E-03    9.9999992E-25
 -1.8950000E-03    9.9999992E-25
 -1.8600000E-03    9.9999992E-25
 -1.8250000E-03    1.0000000E-24
 -1.7900000E-03    1.0000000E-24
 -1.7550000E-03    9.9999963E-25
 -1.7199999E-03    9.9999992E-25
 -1.6850000E-03    1.0000007E-24
 -1.6500000E-03    1.0000004E-24
 -1.6150000E-03    9.9999963E-25
 -1.5800000E-03    9.9999963E-25
 -1.5450000E-03    1.0000001E-24
 -1.5100000E-03    1.0000008E-24
 -1.4750001E-03    1.0000008E-24
 -1.4400000E-03    1.0000000E-24
 -1.4050000E-03    9.9999943E-25
 -1.3700000E-03    9.9999972E-25
 -1.3350000E-03    9.9999972E-25
 -1.3000000E-03    9.9999963E-25
 -1.2650000E-03    1.0000005E-24
 -1.2300001E-03    1.0000012E-24
 -1.1950000E-03    1.0000005E-24
 -1.1600000E-03    9.9999933E-25
 -1.1250000E-03    9.9999933E-25
 -1.0900000E-03    1.0000001E-24
 -1.0550000E-03    1.0000006E-24
 -1.0200000E-03    1.0000005E-24
 -9.8500005E-04    1.0000003E-24
 -9.5000002E-04    1.0000000E-24
 -9.1499998E-04    9.9999972E-25
 -8.8000001E-04    1.0000000E-24
 -8.4499997E-04    1.0000004E-24
 -8.1000000E-04    1.0000002E-24
 -7.7500002E-04    1.0000000E-24
 -7.3999999E-04    1.0000002E-24
 -7.0500001E-04    1.0000005E-24
 -6.6999998E-04    1.0000000E-24
 -6.3500000E-04    9.9999933E-25
 -6.0000003E-04    1.0000002E-24
 -5.6499999E-04    1.0000011E-24
 -5.3000002E-04    1.0000000E-24
 -4.9499999E-04    9.9999893E-25
 -4.6000001E-04    9.9999943E-25
 -4.2500001E-04    9.9999992E-25
 -3.9000000E-04    1.0000004E-24
 -3.5500000E-04    1.0000008E-24
 -3.1999999E-04    1.0000005E-24
 -2.8499999E-04    9.9999992E-25
 -2.5000001E-04    1.0000001E-24
 -2.1499999E-04    1.0000007E-24
 -1.8000000E-04    1.0000001E-24
 -1.4500000E-04    9.9999972E-25
 -1.1000000E-04    1.0000001E-24
 -7.5000004E-05    1.0000004E-24
 -3.9999999E-05    1.0000002E-24
 -4.9999999E-06    1.0000004E-24
  2.9999999E-05    1.0000005E-24
  6.5000000E-05    9.9999992E-25
  9.9999997E-05    9.9999933E-25
  1.3499999E-04    9.9999933E-25
  1.7000000E-04    9.9999982E-25
  2.0500000E-04    1.0000010E-24
  2.3999999E-04    1.0000016E-24
  2.7500000E-04    1.0000001E-24
  3.1000000E-04    9.9999933E-25
  3.4500001E-04    1.0000004E-24
  3.8000001E-04    1.0000003E-24
  4.1499999E-04    9.9999893E-25
  4.4999999E-04    9.9999923E-25
  4.8500000E-04    9.9999982E-25
  5.2000000E-04    9.9999963E-25
  5.5499998E-04    1.0000006E-24
  5.9000001E-04    1.0000014E-24
  6.2499999E-04    9.9999982E-25
  6.6000002E-04    9.9999903E-25
  6.9500000E-04    1.0000001E-24
  7.3000003E-04    1.0000000E-24
  7.6500000E-04    9.9999982E-25
  7.9999998E-04    1.0000009E-24
  8.3500001E-04    1.0000003E-24
  8.6999999E-04    9.9999923E-25
  9.0500002E-04    1.0000005E-24
  9.4000000E-04    1.0000008E-24
  9.7499997E-04    9.9999953E-25
  1.0100000E-03    1.0000005E-24
  1.0450000E-03    1.0000014E-24
  1.0800000E-03    9.9999972E-25
  1.1150000E-03    9.9999943E-25
  1.1500000E-03    1.0000011E-24
  1.1849999E-03    1.0000004E-24
  1.2200000E-03    9.9999943E-25
  1.2550000E-03    9.9999982E-25
  1.2900000E-03    9.9999972E-25
  1.3250000E-03    1.0000000E-24
  1.3600000E-03    1.0000005E-24
  1.3950000E-03    9.9999972E-25
  1.4299999E-03    9.9999903E-25
  1.4650000E-03    9.9999992E-25
  1.5000000E-03    1.0000008E-24
  1.5350000E-03    1.0000005E-24
  1.5700000E-03    9.9999992E-25
  1.6050000E-03    9.9999933E-25
  1.6400000E-03    9.9999953E-25
  1.6749999E-03    1.0000005E-24
  1.7100000E-03    1.0000010E-24
  1.7450000E-03    1.0000007E-24
  1.7800000E-03    1.0000005E-24
  1.8150000E-03    1.0000005E-24
  1.8500000E-03    9.9999982E-25
  1.8850000E-03    9.9999864E-25
  1.9200000E-03    9.9999844E-25
  1.9550000E-03    9.9999992E-25
  1.9900000E-03    1.0000016E-24
  2.0250001E-03    1.0000019E-24
  2.0600001E-03    1.0000007E-24
  2.0949999E-03    9.9999913E-25
  2.1299999E-03    9.9999903E-25
  2.1650000E-03    1.0000003E-24
  2.2000000E-03    1.0000006E-24
  2.2350000E-03    1.0000005E-24
  2.2700001E-03    1.0000010E-24
  2.3050001E-03    1.0000000E-24
  2.3399999E-03    9.9999913E-25
  2.3749999E-03    1.0000022E-24
  2.4100000E-03    1.0000027E-24
  2.4450000E-03    9.9999519E-25
  2.4800000E-03    9.9999391E-25
  2.5150001E-03    1.0000068E-24
  2.5500001E-03    1.0000102E-24
  2.5849999E-03    9.9998927E-25
  2.6199999E-03    9.9998257E-25
  2.6550000E-03    1.0000183E-24
  2.6900000E-03    1.0000351E-24
  2.7250000E-03    9.9997399E-25
  2.7600001E-03    9.9993149E-25
  2.7950001E-03    1.0000350E-24
  2.8299999E-03    1.0001357E-24
  2.8649999E-03    9.9995880E-25
  2.9000000E-03    9.9973171E-25
  2.9350000E-03    1.0000348E-24
  2.9700000E-03    1.0005248E-24
  3.0050001E-03    1.0000131E-24
  3.0400001E-03    9.9899915E-25
  3.0749999E-03    9.9983860E-25
  3.1099999E-03    1.0018594E-24
  3.1450000E-03    1.0005388E-24
  3.1800000E-03    9.9663089E-25
  3.2150000E-03    9.9857613E-25
  3.2500001E-03    1.0059409E-24
  3.2850001E-03    1.0033799E-24
  3.3199999E-03    9.8983121E-25
  3.3549999E-03    9.9250338E-25
  3.3900000E-03    1.0168501E-24
  3.4250000E-03    1.0158280E-24
  3.4600000E-03    9.7310903E-25
  3.4950001E-03    9.6790383E-25
  3.5300001E-03    1.0409906E-24
  3.5649999E-03    1.0628235E-24
  3.5999999E-03    9.4119379E-25
  3.6350000E-03    8.8097609E-25
  3.6700000E-03    1.0771193E-24
  3.7050000E-03    1.2185632E-24
  3.7400001E-03    9.1384931E-25
  3.7750001E-03    6.1089107E-25
  3.8099999E-03    1.0626692E-24
  3.8449999E-03    1.6711547E-24
  3.8800000E-03    1.0421938E-24
  3.9149998E-03   -1.1963511E-25
  3.9499998E-03    6.7666299E-25
  3.9849998E-03    2.8008599E-24
  4.0199999E-03    1.9540183E-24
  4.0549999E-03   -1.7783376E-24
  4.0899999E-03   -1.2341290E-24
  4.1250000E-03    5.0759010E-24
  4.1600000E-03    5.6571389E-24
  4.1950000E-03   -4.5987980E-24
  4.2300001E-03   -7.9938936E-24
  4.2650001E-03    7.9826752E-24
  4.3000001E-03    1.7380747E-23
  4.3350002E-03   -6.3269279E-24
  4.3700002E-03   -2.7377983E-23
  4.4049998E-03    5.7553458E-24
  4.4399998E-03    4.7926449E-23
  4.4749998E-03    5.2614656E-24
  4.5099999E-03   -7.3068159E-23
  4.5449999E-03   -2.4878611E-23
  4.5799999E-03    1.1220336E-22
  4.6150000E-03    7.1155670E-23
  4.6500000E-03   -1.5652908E-22
  4.6850001E-03   -1.5153730E-22
  4.7200001E-03    2.0814941E-22
  4.7550001E-03    2.9620159E-22
  4.7900002E-03   -2.4319395E-22
  4.8250002E-03   -5.2653419E-22
  4.8600002E-03    2.3619215E-22
  4.8949998E-03    8.8534084E-22
  4.9299998E-03   -1.1705276E-22
  4.9649999E-03   -1.3984714E-21
  4.9999999E-03   -2.1151091E-22
  5.0349999E-03    2.0922984E-21
  5.0700000E-03    9.2307702E-22
  5.1050000E-03   -2.9340969E-21
  5.1400000E-03   -2.2518177E-21
  5.1750001E-03    3.8171388E-21
  5.2100001E-03    4.5328419E-21
  5.2450001E-03   -4.4559174E-21
  5.2800002E-03   -8.1575720E-21
  5.3150002E-03    4.3145078E-21
  5.3500002E-03    1.3551176E-20
  5.3849998E-03   -2.4404742E-21
  5.4199998E-03   -2.1013402E-20
  5.4549999E-03   -2.6558512E-21
  5.4899999E-03    3.0510447E-20
  5.5249999E-03    1.3172463E-20
  5.5600000E-03   -4.1243122E-20
  5.5950000E-03   -3.2044916E-20
  5.6300000E-03    5.1075640E-20
  5.6650001E-03    6.2852466E-20
  5.7000001E-03   -5.5675058E-20
  5.7350001E-03   -1.0930795E-19
  5.7700002E-03    4.7520169E-20
  5.8050002E-03    1.7423378E-19
  5.8400002E-03   -1.4781162E-20
  5.8749998E-03   -2.5762390E-19
  5.9099998E-03   -5.9513454E-20
  5.9449999E-03    3.5364246E-19
  5.9799999E-03    1.9763779E-19
  6.0149999E-03   -4.4623473E-19
  6.0500000E-03   -4.2572590E-19
  6.0850000E-03    5.0351197E-19
  6.1200000E-03    7.6974000E-19
  6.1550001E-03   -4.7125477E-19
  6.1900001E-03   -1.2473421E-18
  6.2250001E-03    2.6686167E-19
  6.2600002E-03    1.8543334E-18
  6.2950002E-03    2.2415026E-19
  6.3299998E-03   -2.5443718E-18
  6.3649998E-03   -1.1454074E-18
  6.3999998E-03    3.2018728E-18
  6.4349999E-03    2.6558323E-18
  6.4699999E-03   -3.6096036E-18
  6.5049999E-03   -4.8983076E-18
  6.5400000E-03    3.4158179E-18
  6.5750000E-03    7.9442633E-18
  6.6100000E-03   -2.1099070E-18
  6.6450001E-03   -1.1708451E-17
  6.6800001E-03   -9.7870594E-19
  6.7150001E-03    1.5832143E-17
  6.7500002E-03    6.6379085E-18
  6.7850002E-03   -1.9540309E-17
  6.8199998E-03   -1.5660592E-17
  6.8549998E-03    2.1490664E-17
  6.8899998E-03    2.8635256E-17
  6.9249999E-03   -1.9649459E-17
  6.9599999E-03   -4.5616033E-17
  6.9949999E-03    1.1250540E-17
  7.0300000E-03    6.5663602E-17
  7.0650000E-03    7.0836762E-18
  7.1000000E-03   -8.6276546E-17
  7.1350001E-03   -3.8961696E-17
  7.1700001E-03    1.0277891E-16
  7.2050001E-03    8.7480219E-17
  7.2400002E-03   -1.0779212E-16
  7.2750002E-03   -1.5403344E-16
  7.3099998E-03    9.0995261E-17
  7.3449998E-03    2.3664446E-16
  7.3799998E-03   -3.9455728E-17
  7.4149999E-03   -3.2789254E-16
  7.4499999E-03   -6.1129686E-17
  7.4850000E-03    4.1267093E-16
  7.5200000E-03    2.2393240E-16
  7.5550000E-03   -4.6622493E-16
  7.5900001E-03   -4.5695093E-16
  7.6250001E-03    4.5316946E-16
  7.6600001E-03    7.5735561E-16
  7.6950002E-03   -3.2842805E-16
  7.7300002E-03   -1.1045061E-15
  7.7650002E-03    4.1193631E-17
  7.7999998E-03    1.4524615E-15
  7.8349998E-03    4.5698979E-16
  7.8699999E-03   -1.7234938E-15
  7.9049999E-03   -1.1992494E-15
  7.9399999E-03    1.8048644E-15
  7.9750000E-03    2.1854113E-15
  8.0100000E-03   -1.5518184E-15
  8.0450000E-03   -3.3601630E-15
  8.0800001E-03    8.0009493E-16
  8.1150001E-03    4.5901249E-15
  8.1500001E-03    6.0897360E-16
  8.1850002E-03   -5.6446576E-15
  8.2200002E-03   -2.7888625E-15
  8.2550002E-03    6.1873512E-15
  8.2900003E-03    5.7542540E-15
  8.3250003E-03   -5.7867351E-15
  8.3600003E-03   -9.3575855E-15
  8.3950004E-03    3.9553427E-15
  8.4300004E-03    1.3224820E-14
  8.4650004E-03   -2.2474092E-16
  8.5000005E-03   -1.6705124E-14
  8.5349996E-03   -5.7399992E-15
  8.5699996E-03    1.8854137E-14
  8.6049996E-03    1.3990455E-14
  8.6399997E-03   -1.8474027E-14
  8.6749997E-03   -2.4124361E-14
  8.7099997E-03    1.4232703E-14
  8.7449998E-03    3.5122519E-14
  8.7799998E-03   -4.8782063E-15
  8.8149998E-03   -4.5234392E-14
  8.8499999E-03   -1.0449468E-14
  8.8849999E-03    5.1964723E-14
  8.9199999E-03    3.1828537E-14
  8.9550000E-03   -5.2217226E-14
  8.9900000E-03   -5.8135937E-14
  9.0250000E-03    4.2643647E-14
  9.0600001E-03    8.6677627E-14
  9.0950001E-03   -2.0222917E-14
  9.1300001E-03   -1.1297716E-13
  9.1650002E-03   -1.6945922E-14
  9.2000002E-03    1.3084724E-13
  9.2350002E-03    6.8711197E-14
  9.2700003E-03   -1.3286351E-13
  9.3050003E-03   -1.3193717E-13
  9.3400003E-03    1.1132454E-13
  9.3750004E-03    1.9978106E-13
  9.4100004E-03   -5.9708742E-14
  9.4450004E-03   -2.6143318E-13
  9.4799995E-03   -2.5468956E-14
  9.5149996E-03    3.0258258E-13
  9.5499996E-03    1.4263294E-13
  9.5849996E-03   -3.0682173E-13
  9.6199997E-03   -2.8332640E-13
  9.6549997E-03    2.5808237E-13
  9.6899997E-03    4.3107399E-13
  9.7249998E-03   -1.4399973E-13
  9.7599998E-03   -5.6145507E-13
  9.7949998E-03   -4.0146323E-14
  9.8299999E-03    6.4385210E-13
  9.8649999E-03    2.8753256E-13
  9.8999999E-03   -6.4515385E-13
  9.9350000E-03   -5.7678574E-13
  9.9700000E-03    5.3536255E-13
  1.0005000E-02    8.7084718E-13
  1.0040000E-02   -2.9461879E-13
  1.0075000E-02   -1.1186337E-12
  1.0110000E-02   -7.9341041E-14
  1.0145000E-02    1.2601406E-12
  1.0180000E-02    5.6471760E-13
  1.0215000E-02   -1.2350911E-12
  1.0250000E-02   -1.1118760E-12
  1.0285000E-02    9.9451144E-13
  1.0320000E-02    1.6439357E-12
  1.0355000E-02   -5.1377072E-13
  1.0390000E-02   -2.0630262E-12
  1.0425000E-02   -1.9516303E-13
  1.0460000E-02    2.2626788E-12
  1.0495000E-02    1.0750494E-12
  1.0530000E-02   -2.1456691E-12
  1.0565000E-02   -2.0211814E-12
  1.0600000E-02    1.6452122E-12
  1.0635000E-02    2.8880206E-12
  1.0670000E-02   -7.4607762E-13
  1.0705000E-02   -3.5057823E-12
  1.0740000E-02   -4.9875821E-13
  1.0775000E-02    3.7062840E-12
  1.0810000E-02    1.9605476E-12
  1.0845000E-02   -3.3552295E-12
  1.0880000E-02   -3.4402739E-12
  1.0915000E-02    2.3859471E-12
  1.0950000E-02    4.6894173E-12
  1.0985000E-02   -8.2802612E-13
  1.1020000E-02   -5.4455811E-12
  1.1055000E-02   -1.1763691E-12
  1.1090000E-02    5.4791649E-12
  1.1125000E-02    3.3748265E-12
  1.1160000E-02   -4.6440156E-12
  1.1195000E-02   -5.4294642E-12
  1.1230000E-02    2.9224253E-12
  1.1265000E-02    6.9640136E-12
  1.1300000E-02   -4.5390091E-13
  1.1335000E-02   -7.6282036E-12
  1.1370000E-02   -2.4616752E-12
  1.1405000E-02    7.1696950E-12
  1.1440000E-02    5.3924781E-12
  1.1475000E-02   -5.5001273E-12
  1.1510000E-02   -7.8351874E-12
  1.1545000E-02    2.7400883E-12
  1.1580000E-02    9.3009168E-12
  1.1615000E-02    7.7060884E-13
  1.1650000E-02   -9.4131560E-12
  1.1685000E-02   -4.5059971E-12
  1.1720000E-02    7.9986009E-12
  1.1755000E-02    7.8308237E-12
  1.1790000E-02   -5.1501880E-12
  1.1825000E-02   -1.0111855E-11
  1.1860000E-02    1.2440779E-12
  1.1895000E-02    1.0845125E-11
  1.1930000E-02    3.1002700E-12
  1.1965000E-02   -9.7739204E-12
  1.2000000E-02   -7.1171784E-12
  1.2035000E-02    6.9699450E-12
  1.2070000E-02    1.0036139E-11
  1.2105000E-02   -2.8538925E-12
  1.2140000E-02   -1.1241600E-11
  1.2175000E-02   -1.8576727E-12
  1.2210000E-02    1.0417112E-11
  1.2245000E-02    6.2761606E-12
  1.2280000E-02   -7.6391159E-12
  1.2315000E-02   -9.5157207E-12
  1.2350000E-02    3.3928158E-12
  1.2385000E-02    1.0884389E-11
  1.2420000E-02    1.5022151E-12
  1.2455000E-02   -1.0048569E-11
  1.2490000E-02   -6.0485375E-12
  1.2525000E-02    7.1295561E-12
  1.2560000E-02    9.2802059E-12
  1.2595000E-02   -2.7027686E-12
  1.2630000E-02   -1.0479393E-11
  1.2665000E-02   -2.3075810E-12
  1.2700000E-02    9.3495663E-12
  1.2735000E-02    6.8216726E-12
  1.2770000E-02   -6.0997310E-12
  1.2805000E-02   -9.8442938E-12
  1.2840000E-02    1.4126336E-12
  1.2875000E-02    1.0695048E-11
  1.2910000E-02    3.7016497E-12
  1.2945000E-02   -9.1699140E-12
  1.2980000E-02   -8.1338694E-12
  1.3015000E-02    5.5919475E-12
  1.3050000E-02    1.0931224E-11
  1.3085000E-02   -7.3596831E-13
  1.3120000E-02   -1.1517697E-11
  1.3155000E-02   -4.3574259E-12
  1.3190000E-02    9.8221388E-12
  1.3225000E-02    8.6329572E-12
  1.3260000E-02   -6.2787696E-12
  1.3295000E-02   -1.1270492E-11
  1.3330000E-02    1.7010709E-12
  1.3365000E-02    1.1868265E-11
  1.3400000E-02    2.9360219E-12
  1.3435000E-02   -1.0513006E-11
  1.3470000E-02   -6.7483137E-12
  1.3505000E-02    7.7175983E-12
  1.3540000E-02    9.1587744E-12
  1.3575000E-02   -4.2427936E-12
  1.3610000E-02   -1.0011388E-11
  1.3645000E-02    8.6371801E-13
  1.3680000E-02    9.5540728E-12
  1.3715000E-02    1.8422033E-12
  1.3750000E-02   -8.3128478E-12
  1.3785000E-02   -3.6341759E-12
  1.3820000E-02    6.8982749E-12
  1.3855000E-02    4.6459854E-12
  1.3890000E-02   -5.7875579E-12
  1.3925000E-02   -5.3004142E-12
  1.3960000E-02    5.1522038E-12
  1.3995000E-02    6.1180566E-12
  1.4030000E-02   -4.8039654E-12
  1.4065000E-02   -7.5010363E-12
  1.4100000E-02    4.2647986E-12
  1.4135000E-02    9.5651499E-12
  1.4170000E-02   -2.9155779E-12
  1.4205000E-02   -1.2037944E-11
  1.4240000E-02    2.0670397E-13
  1.4275000E-02    1.4256367E-11
  1.4310000E-02    4.1000354E-12
  1.4345000E-02   -1.5316748E-11
  1.4380000E-02   -9.7714467E-12
  1.4415000E-02    1.4320642E-11
  1.4450000E-02    1.6088799E-11
  1.4485000E-02   -1.0596544E-11
  1.4520000E-02   -2.1901139E-11
  1.4555000E-02    3.9215189E-12
  1.4590000E-02    2.5750110E-11
  1.4625000E-02    5.2158547E-12
  1.4660000E-02   -2.6218531E-11
  1.4695000E-02   -1.5527720E-11
  1.4730000E-02    2.2412934E-11
  1.4765000E-02    2.5195155E-11
  1.4800000E-02   -1.4227340E-11
  1.4835000E-02   -3.2229677E-11
  1.4870000E-02    2.3948621E-12
  1.4905000E-02    3.4721229E-11
  1.4940000E-02    1.1366356E-11
  1.4975000E-02   -3.1313004E-11
  1.5010000E-02   -2.4377616E-11
  1.5045000E-02    2.1952822E-11
  1.5080000E-02    3.3726032E-11
  1.5115000E-02   -8.1306108E-12
  1.5150000E-02   -3.7214253E-11
  1.5185000E-02   -7.6511731E-12
  1.5220000E-02    3.3687386E-11
  1.5255000E-02    2.2285429E-11
  1.5290000E-02   -2.3210498E-11
  1.5325000E-02   -3.2260892E-11
  1.5360000E-02    7.7201960E-12
  1.5395000E-02    3.4730552E-11
  1.5430000E-02    8.9950764E-12
  1.5465000E-02   -2.8978080E-11
  1.5500000E-02   -2.2789460E-11
  1.5535000E-02    1.6473486E-11
  1.5570000E-02    3.0444529E-11
  1.5605000E-02    3.6596272E-14
  1.5640000E-02   -2.9713128E-11
  1.5675001E-02   -1.6518223E-11
  1.5710000E-02    1.9994026E-11
  1.5745001E-02    2.7825709E-11
  1.5780000E-02   -3.9706970E-12
  1.5814999E-02   -3.0216517E-11
  1.5850000E-02   -1.3157789E-11
  1.5884999E-02    2.3428544E-11
  1.5920000E-02    2.6663160E-11
  1.5954999E-02   -9.3985514E-12
  1.5990000E-02   -3.2962834E-11
  1.6024999E-02   -8.6412717E-12
  1.6060000E-02    2.9284460E-11
  1.6094999E-02    2.5324187E-11
  1.6130000E-02   -1.5507432E-11
  1.6164999E-02   -3.4031521E-11
  1.6200000E-02   -3.4436347E-12
  1.6235000E-02    3.1593492E-11
  1.6270000E-02    2.0444223E-11
  1.6305000E-02   -2.0321900E-11
  1.6340001E-02   -3.1764848E-11
  1.6375000E-02    2.5085513E-12
  1.6410001E-02    3.3268041E-11
  1.6445000E-02    1.5946864E-11
  1.6480001E-02   -2.5579532E-11
  1.6515000E-02   -3.2136308E-11
  1.6550001E-02    5.9525887E-12
  1.6585000E-02    3.3259992E-11
  1.6620001E-02    8.9781195E-12
  1.6655000E-02   -3.1854564E-11
  1.6690001E-02   -2.9174076E-11
  1.6725000E-02    1.1433412E-11
  1.6759999E-02    2.6500677E-11
  1.6795000E-02   -8.2661733E-12
  1.6829999E-02   -4.1378234E-11
  1.6865000E-02   -2.6304008E-11
  1.6899999E-02    8.0442372E-12
  1.6935000E-02    5.5408265E-12
  1.6969999E-02   -3.1187473E-11
  1.7005000E-02   -5.0828699E-11
  1.7039999E-02   -3.4841546E-11
  1.7075000E-02   -2.0484085E-11
  1.7109999E-02   -3.9196892E-11
  1.7145000E-02   -7.2370471E-11
  1.7180000E-02   -8.5510765E-11
  1.7215000E-02   -8.0190271E-11
  1.7250000E-02   -8.7930080E-11
  1.7285001E-02   -1.2205770E-10
  1.7320000E-02   -1.6009374E-10
  1.7355001E-02   -1.8063921E-10
  1.7390000E-02   -1.9853441E-10
  1.7425001E-02   -2.4240476E-10
  1.7460000E-02   -3.0705044E-10
  1.7495001E-02   -3.6070447E-10
  1.7530000E-02   -4.0262677E-10
  1.7565001E-02   -4.7271481E-10
  1.7600000E-02   -5.8556437E-10
  1.7635001E-02   -7.0020217E-10
  1.7670000E-02   -7.9113038E-10
  1.7704999E-02   -9.0466523E-10
  1.7740000E-02   -1.0900930E-09
  1.7774999E-02   -1.3129036E-09
  1.7810000E-02   -1.5095494E-09
  1.7844999E-02   -1.7050177E-09
  1.7880000E-02   -1.9883004E-09
  1.7914999E-02   -2.3724085E-09
  1.7950000E-02   -2.7735669E-09
  1.7984999E-02   -3.1558518E-09
  1.8020000E-02   -3.6060521E-09
  1.8054999E-02   -4.2098280E-09
  1.8090000E-02   -4.9266906E-09
  1.8124999E-02   -5.6672254E-09
  1.8160000E-02   -6.4509402E-09
  1.8195000E-02   -7.3952431E-09
  1.8230001E-02   -8.5546654E-09
  1.8265000E-02   -9.8620463E-09
  1.8300001E-02   -1.1259900E-08
  1.8335000E-02   -1.2816125E-08
  1.8370001E-02   -1.4648798E-08
  1.8405000E-02   -1.6782094E-08
  1.8440001E-02   -1.9155452E-08
  1.8475000E-02   -2.1763610E-08
  1.8510001E-02   -2.4706679E-08
  1.8545000E-02   -2.8083999E-08
  1.8580001E-02   -3.1909927E-08
  1.8615000E-02   -3.6172814E-08
  1.8650001E-02   -4.0922583E-08
  1.8685000E-02   -4.6255511E-08
  1.8719999E-02   -5.2252446E-08
  1.8755000E-02   -5.8972635E-08
  1.8789999E-02   -6.6477654E-08
  1.8825000E-02   -7.4833878E-08
  1.8859999E-02   -8.4126484E-08
  1.8895000E-02   -9.4486865E-08
  1.8929999E-02   -1.0605765E-07
  1.8965000E-02   -1.1892272E-07
  1.8999999E-02   -1.3314370E-07
  1.9035000E-02   -1.4887711E-07
  1.9069999E-02   -1.6636173E-07
  1.9105000E-02   -1.8576721E-07
  1.9140000E-02   -2.0716911E-07
  1.9175000E-02   -2.3071917E-07
  1.9210000E-02   -2.5671775E-07
  1.9245001E-02   -2.8544881E-07
  1.9280000E-02   -3.1706458E-07
  1.9315001E-02   -3.5173065E-07
  1.9350000E-02   -3.8977848E-07
  1.9385001E-02   -4.3160298E-07
  1.9420000E-02   -4.7749245E-07
  1.9455001E-02   -5.2767905E-07
  1.9490000E-02   -5.8250464E-07
  1.9525001E-02   -6.4243062E-07
  1.9560000E-02   -7.0790759E-07
  1.9595001E-02   -7.7931952E-07
  1.9630000E-02   -8.5705983E-07
  1.9664999E-02   -9.4161527E-07
  1.9700000E-02   -1.0335605E-06
  1.9734999E-02   -1.1334805E-06
  1.9770000E-02   -1.2419093E-06
  1.9804999E-02   -1.3593742E-06
  1.9840000E-02   -1.4865105E-06
  1.9874999E-02   -1.6240772E-06
  1.9910000E-02   -1.7728208E-06
  1.9944999E-02   -1.9333997E-06
  1.9980000E-02   -2.1065102E-06
  2.0014999E-02   -2.2930126E-06
  2.0050000E-02   -2.4938499E-06
  2.0085000E-02   -2.7098893E-06
  2.0120000E-02   -2.9419466E-06
  2.0155000E-02   -3.1909431E-06
  2.0190001E-02   -3.4579409E-06
  2.0225000E-02   -3.7440223E-06
  2.0260001E-02   -4.0502096E-06
  2.0295000E-02   -4.3775190E-06
  2.0330001E-02   -4.7270696E-06
  2.0365000E-02   -5.1000875E-06
  2.0400001E-02   -5.4978036E-06
  2.0435000E-02   -5.9213903E-06
  2.0470001E-02   -6.3720113E-06
  2.0505000E-02   -6.8509430E-06
  2.0540001E-02   -7.3595584E-06
  2.0575000E-02   -7.8992007E-06
  2.0609999E-02   -8.4711264E-06
  2.0645000E-02   -9.0766171E-06
  2.0679999E-02   -9.7170632E-06
  2.0715000E-02   -1.0393896E-05
  2.0749999E-02   -1.1108459E-05
  2.0785000E-02   -1.1862053E-05
  2.0819999E-02   -1.2656016E-05
  2.0855000E-02   -1.3491708E-05
  2.0889999E-02   -1.4370447E-05
  2.0925000E-02   -1.5293543E-05
  2.0959999E-02   -1.6262300E-05
  2.0995000E-02   -1.7277920E-05
  2.1029999E-02   -1.8341492E-05
  2.1065000E-02   -1.9454143E-05
  2.1100000E-02   -2.0617123E-05
  2.1135001E-02   -2.1831524E-05
  2.1170000E-02   -2.3098075E-05
  2.1205001E-02   -2.4417473E-05
  2.1240000E-02   -2.5790703E-05
  2.1275001E-02   -2.7218726E-05
  2.1310000E-02   -2.8701965E-05
  2.1345001E-02   -3.0240511E-05
  2.1380000E-02   -3.1834774E-05
  2.1415001E-02   -3.3485387E-05
  2.1450000E-02   -3.5192465E-05
  2.1485001E-02   -3.6955535E-05
  2.1520000E-02   -3.8774248E-05
  2.1555001E-02   -4.0648505E-05
  2.1590000E-02   -4.2577951E-05
  2.1624999E-02   -4.4561672E-05
  2.1660000E-02   -4.6598561E-05
  2.1694999E-02   -4.8687485E-05
  2.1730000E-02   -5.0827271E-05
  2.1764999E-02   -5.3016571E-05
  2.1800000E-02   -5.5253604E-05
  2.1834999E-02   -5.7536177E-05
  2.1870000E-02   -5.9861970E-05
  2.1904999E-02   -6.2228813E-05
  2.1940000E-02   -6.4634412E-05
  2.1974999E-02   -6.7075736E-05
  2.2010000E-02   -6.9549234E-05
  2.2045000E-02   -7.2051589E-05
  2.2080000E-02   -7.4579752E-05
  2.2115000E-02   -7.7130047E-05
  2.2150001E-02   -7.9697951E-05
  2.2185000E-02   -8.2279039E-05
  2.2220001E-02   -8.4869193E-05
  2.2255000E-02   -8.7463901E-05
  2.2290001E-02   -9.0058027E-05
  2.2325000E-02   -9.2646362E-05
  2.2360001E-02   -9.5223651E-05
  2.2395000E-02   -9.7784447E-05
  2.2430001E-02   -1.0032313E-04
  2.2465000E-02   -1.0283390E-04
  2.2500001E-02   -1.0531081E-04
  2.2535000E-02   -1.0774760E-04
  2.2569999E-02   -1.1013789E-04
  2.2605000E-02   -1.1247567E-04
  2.2639999E-02   -1.1475492E-04
  2.2675000E-02   -1.1696888E-04
  2.2709999E-02   -1.1911053E-04
  2.2745000E-02   -1.2117366E-04
  2.2779999E-02   -1.2315225E-04
  2.2815000E-02   -1.2503976E-04
  2.2849999E-02   -1.2682949E-04
  2.2885000E-02   -1.2851486E-04
  2.2919999E-02   -1.3008992E-04
  2.2955000E-02   -1.3154896E-04
  2.2990000E-02   -1.3288591E-04
  2.3025000E-02   -1.3409452E-04
  2.3060000E-02   -1.3516945E-04
  2.3095001E-02   -1.3610581E-04
  2.3130000E-02   -1.3689848E-04
  2.3165001E-02   -1.3754243E-04
  2.3200000E-02   -1.3803324E-04
  2.3235001E-02   -1.3836693E-04
  2.3270000E-02   -1.3854002E-04
  2.3305001E-02   -1.3854918E-04
  2.3340000E-02   -1.3839113E-04
  2.3375001E-02   -1.3806354E-04
  2.3410000E-02   -1.3756483E-04
  2.3445001E-02   -1.3689311E-04
  2.3480000E-02   -1.3604735E-04
  2.3514999E-02   -1.3502738E-04
  2.3550000E-02   -1.3383292E-04
  2.3584999E-02   -1.3246437E-04
  2.3620000E-02   -1.3092336E-04
  2.3654999E-02   -1.2921142E-04
  2.3690000E-02   -1.2733036E-04
  2.3724999E-02   -1.2528332E-04
  2.3760000E-02   -1.2307370E-04
  2.3794999E-02   -1.2070539E-04
  2.3830000E-02   -1.1818308E-04
  2.3864999E-02   -1.1551143E-04
  2.3900000E-02   -1.1269578E-04
  2.3934999E-02   -1.0974312E-04
  2.3970000E-02   -1.0666007E-04
  2.4005000E-02   -1.0345290E-04
  2.4040001E-02   -1.0012970E-04
  2.4075000E-02   -9.6699150E-05
  2.4110001E-02   -9.3169067E-05
  2.4145000E-02   -8.9548295E-05
  2.4180001E-02   -8.5846732E-05
  2.4215000E-02   -8.2073566E-05
  2.4250001E-02   -7.8238605E-05
  2.4285000E-02   -7.4352654E-05
  2.4320001E-02   -7.0425776E-05
  2.4355000E-02   -6.6468259E-05
  2.4390001E-02   -6.2491410E-05
  2.4425000E-02   -5.8505884E-05
  2.4460001E-02   -5.4522450E-05
  2.4495000E-02   -5.0552579E-05
  2.4529999E-02   -4.6606590E-05
  2.4565000E-02   -4.2694854E-05
  2.4599999E-02   -3.8829094E-05
  2.4635000E-02   -3.5019697E-05
  2.4669999E-02   -3.1275973E-05
  2.4705000E-02   -2.7608645E-05
  2.4739999E-02   -2.4027600E-05
  2.4775000E-02   -2.0541149E-05
  2.4809999E-02   -1.7158700E-05
  2.4845000E-02   -1.3889234E-05
  2.4879999E-02   -1.0739755E-05
  2.4915000E-02   -7.7178229E-06
  2.4950000E-02   -4.8309253E-06
  2.4985000E-02   -2.0847176E-06
  2.5020000E-02    5.1504907E-07
  2.5055001E-02    2.9630060E-06
  2.5090000E-02    5.2555592E-06
  2.5125001E-02    7.3887604E-06
  2.5160000E-02    9.3592216E-06
  2.5195001E-02    1.1165986E-05
  2.5230000E-02    1.2807290E-05
  2.5265001E-02    1.4281055E-05
  2.5300000E-02    1.5588694E-05
  2.5335001E-02    1.6731843E-05
  2.5370000E-02    1.7710390E-05
  2.5405001E-02    1.8526818E-05
  2.5440000E-02    1.9185254E-05
  2.5474999E-02    1.9688512E-05
  2.5510000E-02    2.0040816E-05
  2.5544999E-02    2.0247753E-05
  2.5580000E-02    2.0314186E-05
  2.5614999E-02    2.0246611E-05
  2.5650000E-02    2.0052412E-05
  2.5684999E-02    1.9737638E-05
  2.5720000E-02    1.9310137E-05
  2.5754999E-02    1.8779076E-05
  2.5790000E-02    1.8151513E-05
  2.5824999E-02    1.7436032E-05
  2.5860000E-02    1.6643535E-05
  2.5895000E-02    1.5782201E-05
  2.5930000E-02    1.4859897E-05
  2.5965000E-02    1.3887504E-05
  2.6000001E-02    1.2874905E-05
  2.6035000E-02    1.1830926E-05
  2.6070001E-02    1.0765402E-05
  2.6105000E-02    9.6865842E-06
  2.6140001E-02    8.6030495E-06
  2.6175000E-02    7.5259518E-06
  2.6210001E-02    6.4635988E-06
  2.6245000E-02    5.4218367E-06
  2.6280001E-02    4.4094668E-06
  2.6315000E-02    3.4349450E-06
  2.6350001E-02    2.5042928E-06
  2.6385000E-02    1.6245159E-06
  2.6419999E-02    8.0130059E-07
  2.6455000E-02    3.8691645E-08
  2.6489999E-02   -6.5681388E-07
  2.6525000E-02   -1.2804609E-06
  2.6559999E-02   -1.8311981E-06
  2.6595000E-02   -2.3053003E-06
  2.6629999E-02   -2.6991240E-06
  2.6665000E-02   -3.0132931E-06
  2.6699999E-02   -3.2463929E-06
  2.6735000E-02   -3.3963734E-06
  2.6769999E-02   -3.4661696E-06
  2.6805000E-02   -3.4570576E-06
  2.6839999E-02   -3.3678934E-06
  2.6875000E-02   -3.2027704E-06
  2.6910000E-02   -2.9659989E-06
  2.6945001E-02   -2.6584100E-06
  2.6980000E-02   -2.2845641E-06